M 0.00000 0 (1774.28, 2170.28, 0.00), (1774.28, 2170.28), 0.00
s 0.027064896 _43_ RTR  --- 0 message 32 [0 0 0 0] ------- [43:255 -1:255 32 0] 
r 0.028204896 _40_ RTR  --- 0 message 32 [0 ffffffff 2b 800] ------- [43:255 -1:255 32 0] 
r 0.028204896 _29_ RTR  --- 0 message 32 [0 ffffffff 2b 800] ------- [43:255 -1:255 32 0] 
r 0.028204896 _18_ RTR  --- 0 message 32 [0 ffffffff 2b 800] ------- [43:255 -1:255 32 0] 
r 0.028204896 _8_ RTR  --- 0 message 32 [0 ffffffff 2b 800] ------- [43:255 -1:255 32 0] 
r 0.028204896 _6_ RTR  --- 0 message 32 [0 ffffffff 2b 800] ------- [43:255 -1:255 32 0] 
r 0.028204896 _45_ RTR  --- 0 message 32 [0 ffffffff 2b 800] ------- [43:255 -1:255 32 0] 
s 0.032666194 _1_ RTR  --- 1 message 32 [0 0 0 0] ------- [1:255 -1:255 32 0] 
r 0.033786194 _3_ RTR  --- 1 message 32 [0 ffffffff 1 800] ------- [1:255 -1:255 32 0] 
r 0.033786194 _11_ RTR  --- 1 message 32 [0 ffffffff 1 800] ------- [1:255 -1:255 32 0] 
r 0.033786194 _13_ RTR  --- 1 message 32 [0 ffffffff 1 800] ------- [1:255 -1:255 32 0] 
r 0.033786194 _15_ RTR  --- 1 message 32 [0 ffffffff 1 800] ------- [1:255 -1:255 32 0] 
r 0.033786194 _20_ RTR  --- 1 message 32 [0 ffffffff 1 800] ------- [1:255 -1:255 32 0] 
r 0.033786194 _23_ RTR  --- 1 message 32 [0 ffffffff 1 800] ------- [1:255 -1:255 32 0] 
r 0.033786194 _25_ RTR  --- 1 message 32 [0 ffffffff 1 800] ------- [1:255 -1:255 32 0] 
r 0.033786194 _28_ RTR  --- 1 message 32 [0 ffffffff 1 800] ------- [1:255 -1:255 32 0] 
r 0.033786194 _30_ RTR  --- 1 message 32 [0 ffffffff 1 800] ------- [1:255 -1:255 32 0] 
r 0.033786194 _32_ RTR  --- 1 message 32 [0 ffffffff 1 800] ------- [1:255 -1:255 32 0] 
r 0.033786194 _34_ RTR  --- 1 message 32 [0 ffffffff 1 800] ------- [1:255 -1:255 32 0] 
r 0.033786194 _37_ RTR  --- 1 message 32 [0 ffffffff 1 800] ------- [1:255 -1:255 32 0] 
r 0.033786194 _41_ RTR  --- 1 message 32 [0 ffffffff 1 800] ------- [1:255 -1:255 32 0] 
r 0.033786194 _44_ RTR  --- 1 message 32 [0 ffffffff 1 800] ------- [1:255 -1:255 32 0] 
r 0.033786194 _46_ RTR  --- 1 message 32 [0 ffffffff 1 800] ------- [1:255 -1:255 32 0] 
s 0.093438986 _12_ RTR  --- 2 message 32 [0 0 0 0] ------- [12:255 -1:255 32 0] 
r 0.094538986 _9_ RTR  --- 2 message 32 [0 ffffffff c 800] ------- [12:255 -1:255 32 0] 
r 0.094538986 _4_ RTR  --- 2 message 32 [0 ffffffff c 800] ------- [12:255 -1:255 32 0] 
r 0.094538986 _2_ RTR  --- 2 message 32 [0 ffffffff c 800] ------- [12:255 -1:255 32 0] 
r 0.094538986 _17_ RTR  --- 2 message 32 [0 ffffffff c 800] ------- [12:255 -1:255 32 0] 
r 0.094538986 _19_ RTR  --- 2 message 32 [0 ffffffff c 800] ------- [12:255 -1:255 32 0] 
r 0.094538986 _22_ RTR  --- 2 message 32 [0 ffffffff c 800] ------- [12:255 -1:255 32 0] 
r 0.094538986 _24_ RTR  --- 2 message 32 [0 ffffffff c 800] ------- [12:255 -1:255 32 0] 
r 0.094538986 _38_ RTR  --- 2 message 32 [0 ffffffff c 800] ------- [12:255 -1:255 32 0] 
r 0.094539044 _10_ RTR  --- 2 message 32 [0 ffffffff c 800] ------- [12:255 -1:255 32 0] 
r 0.094539044 _21_ RTR  --- 2 message 32 [0 ffffffff c 800] ------- [12:255 -1:255 32 0] 
r 0.094539044 _26_ RTR  --- 2 message 32 [0 ffffffff c 800] ------- [12:255 -1:255 32 0] 
M 0.10000 0 (1774.28, 2170.28, 0.00), (1774.29, 2170.26), 0.25
s 0.123754628 _42_ RTR  --- 3 message 32 [0 0 0 0] ------- [42:255 -1:255 32 0] 
r 0.124695424 _0_ RTR  --- 3 message 32 [0 ffffffff 2a 800] ------- [42:255 -1:255 32 0] 
r 0.124695424 _7_ RTR  --- 3 message 32 [0 ffffffff 2a 800] ------- [42:255 -1:255 32 0] 
r 0.124695424 _14_ RTR  --- 3 message 32 [0 ffffffff 2a 800] ------- [42:255 -1:255 32 0] 
r 0.124695424 _16_ RTR  --- 3 message 32 [0 ffffffff 2a 800] ------- [42:255 -1:255 32 0] 
r 0.124695424 _33_ RTR  --- 3 message 32 [0 ffffffff 2a 800] ------- [42:255 -1:255 32 0] 
r 0.124695424 _35_ RTR  --- 3 message 32 [0 ffffffff 2a 800] ------- [42:255 -1:255 32 0] 
r 0.124695424 _39_ RTR  --- 3 message 32 [0 ffffffff 2a 800] ------- [42:255 -1:255 32 0] 
s 0.181162560 _2_ RTR  --- 4 message 32 [0 0 0 0] ------- [2:255 -1:255 32 0] 
r 0.182102560 _4_ RTR  --- 4 message 32 [0 ffffffff 2 800] ------- [2:255 -1:255 32 0] 
r 0.182102560 _9_ RTR  --- 4 message 32 [0 ffffffff 2 800] ------- [2:255 -1:255 32 0] 
r 0.182102560 _12_ RTR  --- 4 message 32 [0 ffffffff 2 800] ------- [2:255 -1:255 32 0] 
r 0.182102560 _17_ RTR  --- 4 message 32 [0 ffffffff 2 800] ------- [2:255 -1:255 32 0] 
r 0.182102560 _19_ RTR  --- 4 message 32 [0 ffffffff 2 800] ------- [2:255 -1:255 32 0] 
r 0.182102560 _22_ RTR  --- 4 message 32 [0 ffffffff 2 800] ------- [2:255 -1:255 32 0] 
r 0.182102560 _24_ RTR  --- 4 message 32 [0 ffffffff 2 800] ------- [2:255 -1:255 32 0] 
r 0.182102560 _38_ RTR  --- 4 message 32 [0 ffffffff 2 800] ------- [2:255 -1:255 32 0] 
r 0.182102617 _10_ RTR  --- 4 message 32 [0 ffffffff 2 800] ------- [2:255 -1:255 32 0] 
r 0.182102617 _21_ RTR  --- 4 message 32 [0 ffffffff 2 800] ------- [2:255 -1:255 32 0] 
r 0.182102617 _26_ RTR  --- 4 message 32 [0 ffffffff 2 800] ------- [2:255 -1:255 32 0] 
s 0.195628620 _18_ RTR  --- 5 message 32 [0 0 0 0] ------- [18:255 -1:255 32 0] 
r 0.196708620 _8_ RTR  --- 5 message 32 [0 ffffffff 12 800] ------- [18:255 -1:255 32 0] 
r 0.196708620 _6_ RTR  --- 5 message 32 [0 ffffffff 12 800] ------- [18:255 -1:255 32 0] 
r 0.196708620 _29_ RTR  --- 5 message 32 [0 ffffffff 12 800] ------- [18:255 -1:255 32 0] 
r 0.196708620 _40_ RTR  --- 5 message 32 [0 ffffffff 12 800] ------- [18:255 -1:255 32 0] 
r 0.196708620 _43_ RTR  --- 5 message 32 [0 ffffffff 12 800] ------- [18:255 -1:255 32 0] 
r 0.196708620 _45_ RTR  --- 5 message 32 [0 ffffffff 12 800] ------- [18:255 -1:255 32 0] 
M 0.20000 0 (1774.29, 2170.26, 0.00), (1774.29, 2170.21), 0.49
s 0.227425420 _35_ RTR  --- 6 message 32 [0 0 0 0] ------- [35:255 -1:255 32 0] 
r 0.228305420 _33_ RTR  --- 6 message 32 [0 ffffffff 23 800] ------- [35:255 -1:255 32 0] 
r 0.228305420 _16_ RTR  --- 6 message 32 [0 ffffffff 23 800] ------- [35:255 -1:255 32 0] 
r 0.228305420 _14_ RTR  --- 6 message 32 [0 ffffffff 23 800] ------- [35:255 -1:255 32 0] 
r 0.228305420 _7_ RTR  --- 6 message 32 [0 ffffffff 23 800] ------- [35:255 -1:255 32 0] 
r 0.228305420 _39_ RTR  --- 6 message 32 [0 ffffffff 23 800] ------- [35:255 -1:255 32 0] 
r 0.228305420 _0_ RTR  --- 6 message 32 [0 ffffffff 23 800] ------- [35:255 -1:255 32 0] 
r 0.228306216 _42_ RTR  --- 6 message 32 [0 ffffffff 23 800] ------- [35:255 -1:255 32 0] 
s 0.232809095 _41_ RTR  --- 7 message 32 [0 0 0 0] ------- [41:255 -1:255 32 0] 
r 0.234069095 _37_ RTR  --- 7 message 32 [0 ffffffff 29 800] ------- [41:255 -1:255 32 0] 
r 0.234069095 _34_ RTR  --- 7 message 32 [0 ffffffff 29 800] ------- [41:255 -1:255 32 0] 
r 0.234069095 _32_ RTR  --- 7 message 32 [0 ffffffff 29 800] ------- [41:255 -1:255 32 0] 
r 0.234069095 _30_ RTR  --- 7 message 32 [0 ffffffff 29 800] ------- [41:255 -1:255 32 0] 
r 0.234069095 _28_ RTR  --- 7 message 32 [0 ffffffff 29 800] ------- [41:255 -1:255 32 0] 
r 0.234069095 _25_ RTR  --- 7 message 32 [0 ffffffff 29 800] ------- [41:255 -1:255 32 0] 
r 0.234069095 _23_ RTR  --- 7 message 32 [0 ffffffff 29 800] ------- [41:255 -1:255 32 0] 
r 0.234069095 _20_ RTR  --- 7 message 32 [0 ffffffff 29 800] ------- [41:255 -1:255 32 0] 
r 0.234069095 _15_ RTR  --- 7 message 32 [0 ffffffff 29 800] ------- [41:255 -1:255 32 0] 
r 0.234069095 _13_ RTR  --- 7 message 32 [0 ffffffff 29 800] ------- [41:255 -1:255 32 0] 
r 0.234069095 _11_ RTR  --- 7 message 32 [0 ffffffff 29 800] ------- [41:255 -1:255 32 0] 
r 0.234069095 _3_ RTR  --- 7 message 32 [0 ffffffff 29 800] ------- [41:255 -1:255 32 0] 
r 0.234069095 _1_ RTR  --- 7 message 32 [0 ffffffff 29 800] ------- [41:255 -1:255 32 0] 
r 0.234069095 _44_ RTR  --- 7 message 32 [0 ffffffff 29 800] ------- [41:255 -1:255 32 0] 
r 0.234069095 _46_ RTR  --- 7 message 32 [0 ffffffff 29 800] ------- [41:255 -1:255 32 0] 
s 0.235636616 _14_ RTR  --- 8 message 32 [0 0 0 0] ------- [14:255 -1:255 32 0] 
r 0.236756616 _7_ RTR  --- 8 message 32 [0 ffffffff e 800] ------- [14:255 -1:255 32 0] 
r 0.236756616 _16_ RTR  --- 8 message 32 [0 ffffffff e 800] ------- [14:255 -1:255 32 0] 
r 0.236756616 _33_ RTR  --- 8 message 32 [0 ffffffff e 800] ------- [14:255 -1:255 32 0] 
r 0.236756616 _35_ RTR  --- 8 message 32 [0 ffffffff e 800] ------- [14:255 -1:255 32 0] 
r 0.236756616 _39_ RTR  --- 8 message 32 [0 ffffffff e 800] ------- [14:255 -1:255 32 0] 
r 0.236756616 _0_ RTR  --- 8 message 32 [0 ffffffff e 800] ------- [14:255 -1:255 32 0] 
r 0.236757412 _42_ RTR  --- 8 message 32 [0 ffffffff e 800] ------- [14:255 -1:255 32 0] 
s 0.250270767 _46_ RTR  --- 9 message 32 [0 0 0 0] ------- [46:255 -1:255 32 0] 
r 0.251130767 _44_ RTR  --- 9 message 32 [0 ffffffff 2e 800] ------- [46:255 -1:255 32 0] 
r 0.251130767 _41_ RTR  --- 9 message 32 [0 ffffffff 2e 800] ------- [46:255 -1:255 32 0] 
r 0.251130767 _37_ RTR  --- 9 message 32 [0 ffffffff 2e 800] ------- [46:255 -1:255 32 0] 
r 0.251130767 _34_ RTR  --- 9 message 32 [0 ffffffff 2e 800] ------- [46:255 -1:255 32 0] 
r 0.251130767 _32_ RTR  --- 9 message 32 [0 ffffffff 2e 800] ------- [46:255 -1:255 32 0] 
r 0.251130767 _30_ RTR  --- 9 message 32 [0 ffffffff 2e 800] ------- [46:255 -1:255 32 0] 
r 0.251130767 _28_ RTR  --- 9 message 32 [0 ffffffff 2e 800] ------- [46:255 -1:255 32 0] 
r 0.251130767 _25_ RTR  --- 9 message 32 [0 ffffffff 2e 800] ------- [46:255 -1:255 32 0] 
r 0.251130767 _23_ RTR  --- 9 message 32 [0 ffffffff 2e 800] ------- [46:255 -1:255 32 0] 
r 0.251130767 _20_ RTR  --- 9 message 32 [0 ffffffff 2e 800] ------- [46:255 -1:255 32 0] 
r 0.251130767 _15_ RTR  --- 9 message 32 [0 ffffffff 2e 800] ------- [46:255 -1:255 32 0] 
r 0.251130767 _13_ RTR  --- 9 message 32 [0 ffffffff 2e 800] ------- [46:255 -1:255 32 0] 
r 0.251130767 _11_ RTR  --- 9 message 32 [0 ffffffff 2e 800] ------- [46:255 -1:255 32 0] 
r 0.251130767 _3_ RTR  --- 9 message 32 [0 ffffffff 2e 800] ------- [46:255 -1:255 32 0] 
r 0.251130767 _1_ RTR  --- 9 message 32 [0 ffffffff 2e 800] ------- [46:255 -1:255 32 0] 
M 0.30000 0 (1774.29, 2170.21, 0.00), (1774.30, 2170.13), 0.75
s 0.329125112 _11_ RTR  --- 10 message 32 [0 0 0 0] ------- [11:255 -1:255 32 0] 
r 0.330105112 _3_ RTR  --- 10 message 32 [0 ffffffff b 800] ------- [11:255 -1:255 32 0] 
r 0.330105112 _1_ RTR  --- 10 message 32 [0 ffffffff b 800] ------- [11:255 -1:255 32 0] 
r 0.330105112 _13_ RTR  --- 10 message 32 [0 ffffffff b 800] ------- [11:255 -1:255 32 0] 
r 0.330105112 _15_ RTR  --- 10 message 32 [0 ffffffff b 800] ------- [11:255 -1:255 32 0] 
r 0.330105112 _20_ RTR  --- 10 message 32 [0 ffffffff b 800] ------- [11:255 -1:255 32 0] 
r 0.330105112 _23_ RTR  --- 10 message 32 [0 ffffffff b 800] ------- [11:255 -1:255 32 0] 
r 0.330105112 _25_ RTR  --- 10 message 32 [0 ffffffff b 800] ------- [11:255 -1:255 32 0] 
r 0.330105112 _28_ RTR  --- 10 message 32 [0 ffffffff b 800] ------- [11:255 -1:255 32 0] 
r 0.330105112 _30_ RTR  --- 10 message 32 [0 ffffffff b 800] ------- [11:255 -1:255 32 0] 
r 0.330105112 _32_ RTR  --- 10 message 32 [0 ffffffff b 800] ------- [11:255 -1:255 32 0] 
r 0.330105112 _34_ RTR  --- 10 message 32 [0 ffffffff b 800] ------- [11:255 -1:255 32 0] 
r 0.330105112 _37_ RTR  --- 10 message 32 [0 ffffffff b 800] ------- [11:255 -1:255 32 0] 
r 0.330105112 _41_ RTR  --- 10 message 32 [0 ffffffff b 800] ------- [11:255 -1:255 32 0] 
r 0.330105112 _44_ RTR  --- 10 message 32 [0 ffffffff b 800] ------- [11:255 -1:255 32 0] 
r 0.330105112 _46_ RTR  --- 10 message 32 [0 ffffffff b 800] ------- [11:255 -1:255 32 0] 
s 0.349938431 _17_ RTR  --- 11 message 32 [0 0 0 0] ------- [17:255 -1:255 32 0] 
r 0.350918431 _12_ RTR  --- 11 message 32 [0 ffffffff 11 800] ------- [17:255 -1:255 32 0] 
r 0.350918431 _9_ RTR  --- 11 message 32 [0 ffffffff 11 800] ------- [17:255 -1:255 32 0] 
r 0.350918431 _4_ RTR  --- 11 message 32 [0 ffffffff 11 800] ------- [17:255 -1:255 32 0] 
r 0.350918431 _2_ RTR  --- 11 message 32 [0 ffffffff 11 800] ------- [17:255 -1:255 32 0] 
r 0.350918431 _19_ RTR  --- 11 message 32 [0 ffffffff 11 800] ------- [17:255 -1:255 32 0] 
r 0.350918431 _22_ RTR  --- 11 message 32 [0 ffffffff 11 800] ------- [17:255 -1:255 32 0] 
r 0.350918431 _24_ RTR  --- 11 message 32 [0 ffffffff 11 800] ------- [17:255 -1:255 32 0] 
r 0.350918431 _38_ RTR  --- 11 message 32 [0 ffffffff 11 800] ------- [17:255 -1:255 32 0] 
r 0.350918488 _10_ RTR  --- 11 message 32 [0 ffffffff 11 800] ------- [17:255 -1:255 32 0] 
r 0.350918488 _21_ RTR  --- 11 message 32 [0 ffffffff 11 800] ------- [17:255 -1:255 32 0] 
r 0.350918488 _26_ RTR  --- 11 message 32 [0 ffffffff 11 800] ------- [17:255 -1:255 32 0] 
s 0.377947832 _37_ RTR  --- 12 message 32 [0 0 0 0] ------- [37:255 -1:255 32 0] 
r 0.379127832 _34_ RTR  --- 12 message 32 [0 ffffffff 25 800] ------- [37:255 -1:255 32 0] 
r 0.379127832 _32_ RTR  --- 12 message 32 [0 ffffffff 25 800] ------- [37:255 -1:255 32 0] 
r 0.379127832 _30_ RTR  --- 12 message 32 [0 ffffffff 25 800] ------- [37:255 -1:255 32 0] 
r 0.379127832 _28_ RTR  --- 12 message 32 [0 ffffffff 25 800] ------- [37:255 -1:255 32 0] 
r 0.379127832 _25_ RTR  --- 12 message 32 [0 ffffffff 25 800] ------- [37:255 -1:255 32 0] 
r 0.379127832 _23_ RTR  --- 12 message 32 [0 ffffffff 25 800] ------- [37:255 -1:255 32 0] 
r 0.379127832 _20_ RTR  --- 12 message 32 [0 ffffffff 25 800] ------- [37:255 -1:255 32 0] 
r 0.379127832 _15_ RTR  --- 12 message 32 [0 ffffffff 25 800] ------- [37:255 -1:255 32 0] 
r 0.379127832 _13_ RTR  --- 12 message 32 [0 ffffffff 25 800] ------- [37:255 -1:255 32 0] 
r 0.379127832 _11_ RTR  --- 12 message 32 [0 ffffffff 25 800] ------- [37:255 -1:255 32 0] 
r 0.379127832 _3_ RTR  --- 12 message 32 [0 ffffffff 25 800] ------- [37:255 -1:255 32 0] 
r 0.379127832 _1_ RTR  --- 12 message 32 [0 ffffffff 25 800] ------- [37:255 -1:255 32 0] 
r 0.379127832 _41_ RTR  --- 12 message 32 [0 ffffffff 25 800] ------- [37:255 -1:255 32 0] 
r 0.379127832 _44_ RTR  --- 12 message 32 [0 ffffffff 25 800] ------- [37:255 -1:255 32 0] 
r 0.379127832 _46_ RTR  --- 12 message 32 [0 ffffffff 25 800] ------- [37:255 -1:255 32 0] 
M 0.40000 0 (1774.30, 2170.14, 0.00), (1774.31, 2170.04), 0.98
s 0.436031109 _28_ RTR  --- 13 message 32 [0 0 0 0] ------- [28:255 -1:255 32 0] 
r 0.437171109 _25_ RTR  --- 13 message 32 [0 ffffffff 1c 800] ------- [28:255 -1:255 32 0] 
r 0.437171109 _23_ RTR  --- 13 message 32 [0 ffffffff 1c 800] ------- [28:255 -1:255 32 0] 
r 0.437171109 _20_ RTR  --- 13 message 32 [0 ffffffff 1c 800] ------- [28:255 -1:255 32 0] 
r 0.437171109 _15_ RTR  --- 13 message 32 [0 ffffffff 1c 800] ------- [28:255 -1:255 32 0] 
r 0.437171109 _13_ RTR  --- 13 message 32 [0 ffffffff 1c 800] ------- [28:255 -1:255 32 0] 
r 0.437171109 _11_ RTR  --- 13 message 32 [0 ffffffff 1c 800] ------- [28:255 -1:255 32 0] 
r 0.437171109 _3_ RTR  --- 13 message 32 [0 ffffffff 1c 800] ------- [28:255 -1:255 32 0] 
r 0.437171109 _1_ RTR  --- 13 message 32 [0 ffffffff 1c 800] ------- [28:255 -1:255 32 0] 
r 0.437171109 _30_ RTR  --- 13 message 32 [0 ffffffff 1c 800] ------- [28:255 -1:255 32 0] 
r 0.437171109 _32_ RTR  --- 13 message 32 [0 ffffffff 1c 800] ------- [28:255 -1:255 32 0] 
r 0.437171109 _34_ RTR  --- 13 message 32 [0 ffffffff 1c 800] ------- [28:255 -1:255 32 0] 
r 0.437171109 _37_ RTR  --- 13 message 32 [0 ffffffff 1c 800] ------- [28:255 -1:255 32 0] 
r 0.437171109 _41_ RTR  --- 13 message 32 [0 ffffffff 1c 800] ------- [28:255 -1:255 32 0] 
r 0.437171109 _44_ RTR  --- 13 message 32 [0 ffffffff 1c 800] ------- [28:255 -1:255 32 0] 
r 0.437171109 _46_ RTR  --- 13 message 32 [0 ffffffff 1c 800] ------- [28:255 -1:255 32 0] 
s 0.477099787 _7_ RTR  --- 14 message 32 [0 0 0 0] ------- [7:255 -1:255 32 0] 
r 0.478019787 _14_ RTR  --- 14 message 32 [0 ffffffff 7 800] ------- [7:255 -1:255 32 0] 
r 0.478019787 _16_ RTR  --- 14 message 32 [0 ffffffff 7 800] ------- [7:255 -1:255 32 0] 
r 0.478019787 _33_ RTR  --- 14 message 32 [0 ffffffff 7 800] ------- [7:255 -1:255 32 0] 
r 0.478019787 _35_ RTR  --- 14 message 32 [0 ffffffff 7 800] ------- [7:255 -1:255 32 0] 
r 0.478019787 _39_ RTR  --- 14 message 32 [0 ffffffff 7 800] ------- [7:255 -1:255 32 0] 
r 0.478019788 _0_ RTR  --- 14 message 32 [0 ffffffff 7 800] ------- [7:255 -1:255 32 0] 
r 0.478020584 _42_ RTR  --- 14 message 32 [0 ffffffff 7 800] ------- [7:255 -1:255 32 0] 
s 0.482611228 _29_ RTR  --- 15 message 32 [0 0 0 0] ------- [29:255 -1:255 32 0] 
r 0.484031228 _18_ RTR  --- 15 message 32 [0 ffffffff 1d 800] ------- [29:255 -1:255 32 0] 
r 0.484031228 _8_ RTR  --- 15 message 32 [0 ffffffff 1d 800] ------- [29:255 -1:255 32 0] 
r 0.484031228 _6_ RTR  --- 15 message 32 [0 ffffffff 1d 800] ------- [29:255 -1:255 32 0] 
r 0.484031228 _40_ RTR  --- 15 message 32 [0 ffffffff 1d 800] ------- [29:255 -1:255 32 0] 
r 0.484031228 _43_ RTR  --- 15 message 32 [0 ffffffff 1d 800] ------- [29:255 -1:255 32 0] 
r 0.484031228 _45_ RTR  --- 15 message 32 [0 ffffffff 1d 800] ------- [29:255 -1:255 32 0] 
M 0.50000 0 (1774.31, 2170.04, 0.00), (1774.32, 2169.92), 1.21
s 0.515179250 _48_ RTR  --- 16 message 32 [0 0 0 0] ------- [48:255 -1:255 32 0] 
r 0.516059250 _47_ RTR  --- 16 message 32 [0 ffffffff 30 800] ------- [48:255 -1:255 32 0] 
r 0.516059250 _49_ RTR  --- 16 message 32 [0 ffffffff 30 800] ------- [48:255 -1:255 32 0] 
s 0.520405222 _21_ RTR  --- 17 message 32 [0 0 0 0] ------- [21:255 -1:255 32 0] 
r 0.521605222 _10_ RTR  --- 17 message 32 [0 ffffffff 15 800] ------- [21:255 -1:255 32 0] 
r 0.521605222 _26_ RTR  --- 17 message 32 [0 ffffffff 15 800] ------- [21:255 -1:255 32 0] 
r 0.521605279 _38_ RTR  --- 17 message 32 [0 ffffffff 15 800] ------- [21:255 -1:255 32 0] 
r 0.521605279 _24_ RTR  --- 17 message 32 [0 ffffffff 15 800] ------- [21:255 -1:255 32 0] 
r 0.521605279 _22_ RTR  --- 17 message 32 [0 ffffffff 15 800] ------- [21:255 -1:255 32 0] 
r 0.521605279 _19_ RTR  --- 17 message 32 [0 ffffffff 15 800] ------- [21:255 -1:255 32 0] 
r 0.521605279 _17_ RTR  --- 17 message 32 [0 ffffffff 15 800] ------- [21:255 -1:255 32 0] 
r 0.521605279 _12_ RTR  --- 17 message 32 [0 ffffffff 15 800] ------- [21:255 -1:255 32 0] 
r 0.521605279 _9_ RTR  --- 17 message 32 [0 ffffffff 15 800] ------- [21:255 -1:255 32 0] 
r 0.521605279 _4_ RTR  --- 17 message 32 [0 ffffffff 15 800] ------- [21:255 -1:255 32 0] 
r 0.521605279 _2_ RTR  --- 17 message 32 [0 ffffffff 15 800] ------- [21:255 -1:255 32 0] 
M 0.60000 0 (1774.32, 2169.92, 0.00), (1774.33, 2169.77), 1.46
s 0.627126124 _9_ RTR  --- 18 message 32 [0 0 0 0] ------- [9:255 -1:255 32 0] 
r 0.628486124 _4_ RTR  --- 18 message 32 [0 ffffffff 9 800] ------- [9:255 -1:255 32 0] 
r 0.628486124 _2_ RTR  --- 18 message 32 [0 ffffffff 9 800] ------- [9:255 -1:255 32 0] 
r 0.628486124 _12_ RTR  --- 18 message 32 [0 ffffffff 9 800] ------- [9:255 -1:255 32 0] 
r 0.628486124 _17_ RTR  --- 18 message 32 [0 ffffffff 9 800] ------- [9:255 -1:255 32 0] 
r 0.628486124 _19_ RTR  --- 18 message 32 [0 ffffffff 9 800] ------- [9:255 -1:255 32 0] 
r 0.628486124 _22_ RTR  --- 18 message 32 [0 ffffffff 9 800] ------- [9:255 -1:255 32 0] 
r 0.628486124 _24_ RTR  --- 18 message 32 [0 ffffffff 9 800] ------- [9:255 -1:255 32 0] 
r 0.628486124 _38_ RTR  --- 18 message 32 [0 ffffffff 9 800] ------- [9:255 -1:255 32 0] 
r 0.628486182 _10_ RTR  --- 18 message 32 [0 ffffffff 9 800] ------- [9:255 -1:255 32 0] 
r 0.628486182 _21_ RTR  --- 18 message 32 [0 ffffffff 9 800] ------- [9:255 -1:255 32 0] 
r 0.628486182 _26_ RTR  --- 18 message 32 [0 ffffffff 9 800] ------- [9:255 -1:255 32 0] 
s 0.634431371 _5_ RTR  --- 19 message 32 [0 0 0 0] ------- [5:255 -1:255 32 0] 
r 0.635391498 _31_ RTR  --- 19 message 32 [0 ffffffff 5 800] ------- [5:255 -1:255 32 0] 
r 0.635391498 _36_ RTR  --- 19 message 32 [0 ffffffff 5 800] ------- [5:255 -1:255 32 0] 
r 0.635392146 _27_ RTR  --- 19 message 32 [0 ffffffff 5 800] ------- [5:255 -1:255 32 0] 
s 0.671720552 _45_ RTR  --- 20 message 32 [0 0 0 0] ------- [45:255 -1:255 32 0] 
r 0.672540552 _43_ RTR  --- 20 message 32 [0 ffffffff 2d 800] ------- [45:255 -1:255 32 0] 
r 0.672540552 _40_ RTR  --- 20 message 32 [0 ffffffff 2d 800] ------- [45:255 -1:255 32 0] 
r 0.672540552 _29_ RTR  --- 20 message 32 [0 ffffffff 2d 800] ------- [45:255 -1:255 32 0] 
r 0.672540552 _18_ RTR  --- 20 message 32 [0 ffffffff 2d 800] ------- [45:255 -1:255 32 0] 
r 0.672540552 _8_ RTR  --- 20 message 32 [0 ffffffff 2d 800] ------- [45:255 -1:255 32 0] 
r 0.672540552 _6_ RTR  --- 20 message 32 [0 ffffffff 2d 800] ------- [45:255 -1:255 32 0] 
M 0.70000 0 (1774.33, 2169.77, 0.00), (1774.35, 2169.61), 1.66
s 0.705784464 _20_ RTR  --- 21 message 32 [0 0 0 0] ------- [20:255 -1:255 32 0] 
r 0.707184464 _15_ RTR  --- 21 message 32 [0 ffffffff 14 800] ------- [20:255 -1:255 32 0] 
r 0.707184464 _13_ RTR  --- 21 message 32 [0 ffffffff 14 800] ------- [20:255 -1:255 32 0] 
r 0.707184464 _11_ RTR  --- 21 message 32 [0 ffffffff 14 800] ------- [20:255 -1:255 32 0] 
r 0.707184464 _3_ RTR  --- 21 message 32 [0 ffffffff 14 800] ------- [20:255 -1:255 32 0] 
r 0.707184464 _1_ RTR  --- 21 message 32 [0 ffffffff 14 800] ------- [20:255 -1:255 32 0] 
r 0.707184464 _23_ RTR  --- 21 message 32 [0 ffffffff 14 800] ------- [20:255 -1:255 32 0] 
r 0.707184464 _25_ RTR  --- 21 message 32 [0 ffffffff 14 800] ------- [20:255 -1:255 32 0] 
r 0.707184464 _28_ RTR  --- 21 message 32 [0 ffffffff 14 800] ------- [20:255 -1:255 32 0] 
r 0.707184464 _30_ RTR  --- 21 message 32 [0 ffffffff 14 800] ------- [20:255 -1:255 32 0] 
r 0.707184464 _32_ RTR  --- 21 message 32 [0 ffffffff 14 800] ------- [20:255 -1:255 32 0] 
r 0.707184464 _34_ RTR  --- 21 message 32 [0 ffffffff 14 800] ------- [20:255 -1:255 32 0] 
r 0.707184464 _37_ RTR  --- 21 message 32 [0 ffffffff 14 800] ------- [20:255 -1:255 32 0] 
r 0.707184464 _41_ RTR  --- 21 message 32 [0 ffffffff 14 800] ------- [20:255 -1:255 32 0] 
r 0.707184464 _44_ RTR  --- 21 message 32 [0 ffffffff 14 800] ------- [20:255 -1:255 32 0] 
r 0.707184464 _46_ RTR  --- 21 message 32 [0 ffffffff 14 800] ------- [20:255 -1:255 32 0] 
M 0.80000 0 (1774.35, 2169.61, 0.00), (1774.36, 2169.42), 1.90
s 0.813327923 _34_ RTR  --- 23 message 32 [0 0 0 0] ------- [34:255 -1:255 32 0] 
r 0.814247923 _32_ RTR  --- 23 message 32 [0 ffffffff 22 800] ------- [34:255 -1:255 32 0] 
r 0.814247923 _30_ RTR  --- 23 message 32 [0 ffffffff 22 800] ------- [34:255 -1:255 32 0] 
r 0.814247923 _28_ RTR  --- 23 message 32 [0 ffffffff 22 800] ------- [34:255 -1:255 32 0] 
r 0.814247923 _25_ RTR  --- 23 message 32 [0 ffffffff 22 800] ------- [34:255 -1:255 32 0] 
r 0.814247923 _23_ RTR  --- 23 message 32 [0 ffffffff 22 800] ------- [34:255 -1:255 32 0] 
r 0.814247923 _20_ RTR  --- 23 message 32 [0 ffffffff 22 800] ------- [34:255 -1:255 32 0] 
r 0.814247923 _15_ RTR  --- 23 message 32 [0 ffffffff 22 800] ------- [34:255 -1:255 32 0] 
r 0.814247923 _13_ RTR  --- 23 message 32 [0 ffffffff 22 800] ------- [34:255 -1:255 32 0] 
r 0.814247923 _11_ RTR  --- 23 message 32 [0 ffffffff 22 800] ------- [34:255 -1:255 32 0] 
r 0.814247923 _3_ RTR  --- 23 message 32 [0 ffffffff 22 800] ------- [34:255 -1:255 32 0] 
r 0.814247923 _1_ RTR  --- 23 message 32 [0 ffffffff 22 800] ------- [34:255 -1:255 32 0] 
r 0.814247923 _37_ RTR  --- 23 message 32 [0 ffffffff 22 800] ------- [34:255 -1:255 32 0] 
r 0.814247923 _41_ RTR  --- 23 message 32 [0 ffffffff 22 800] ------- [34:255 -1:255 32 0] 
r 0.814247923 _44_ RTR  --- 23 message 32 [0 ffffffff 22 800] ------- [34:255 -1:255 32 0] 
r 0.814247923 _46_ RTR  --- 23 message 32 [0 ffffffff 22 800] ------- [34:255 -1:255 32 0] 
s 0.814785851 _36_ RTR  --- 22 message 32 [0 0 0 0] ------- [36:255 -1:255 32 0] 
r 0.815605851 _31_ RTR  --- 22 message 32 [0 ffffffff 24 800] ------- [36:255 -1:255 32 0] 
r 0.815605977 _5_ RTR  --- 22 message 32 [0 ffffffff 24 800] ------- [36:255 -1:255 32 0] 
s 0.826428423 _22_ RTR  --- 24 message 32 [0 0 0 0] ------- [22:255 -1:255 32 0] 
r 0.827248423 _19_ RTR  --- 24 message 32 [0 ffffffff 16 800] ------- [22:255 -1:255 32 0] 
r 0.827248423 _17_ RTR  --- 24 message 32 [0 ffffffff 16 800] ------- [22:255 -1:255 32 0] 
r 0.827248423 _12_ RTR  --- 24 message 32 [0 ffffffff 16 800] ------- [22:255 -1:255 32 0] 
r 0.827248423 _9_ RTR  --- 24 message 32 [0 ffffffff 16 800] ------- [22:255 -1:255 32 0] 
r 0.827248423 _4_ RTR  --- 24 message 32 [0 ffffffff 16 800] ------- [22:255 -1:255 32 0] 
r 0.827248423 _2_ RTR  --- 24 message 32 [0 ffffffff 16 800] ------- [22:255 -1:255 32 0] 
r 0.827248423 _24_ RTR  --- 24 message 32 [0 ffffffff 16 800] ------- [22:255 -1:255 32 0] 
r 0.827248423 _38_ RTR  --- 24 message 32 [0 ffffffff 16 800] ------- [22:255 -1:255 32 0] 
r 0.827248481 _10_ RTR  --- 24 message 32 [0 ffffffff 16 800] ------- [22:255 -1:255 32 0] 
r 0.827248481 _21_ RTR  --- 24 message 32 [0 ffffffff 16 800] ------- [22:255 -1:255 32 0] 
r 0.827248481 _26_ RTR  --- 24 message 32 [0 ffffffff 16 800] ------- [22:255 -1:255 32 0] 
s 0.852666999 _16_ RTR  --- 25 message 32 [0 0 0 0] ------- [16:255 -1:255 32 0] 
r 0.853986999 _14_ RTR  --- 25 message 32 [0 ffffffff 10 800] ------- [16:255 -1:255 32 0] 
r 0.853986999 _7_ RTR  --- 25 message 32 [0 ffffffff 10 800] ------- [16:255 -1:255 32 0] 
r 0.853986999 _33_ RTR  --- 25 message 32 [0 ffffffff 10 800] ------- [16:255 -1:255 32 0] 
r 0.853986999 _35_ RTR  --- 25 message 32 [0 ffffffff 10 800] ------- [16:255 -1:255 32 0] 
r 0.853986999 _39_ RTR  --- 25 message 32 [0 ffffffff 10 800] ------- [16:255 -1:255 32 0] 
r 0.853987001 _0_ RTR  --- 25 message 32 [0 ffffffff 10 800] ------- [16:255 -1:255 32 0] 
r 0.853987795 _42_ RTR  --- 25 message 32 [0 ffffffff 10 800] ------- [16:255 -1:255 32 0] 
s 0.891156560 _3_ RTR  --- 26 message 32 [0 0 0 0] ------- [3:255 -1:255 32 0] 
r 0.892516560 _1_ RTR  --- 26 message 32 [0 ffffffff 3 800] ------- [3:255 -1:255 32 0] 
r 0.892516560 _11_ RTR  --- 26 message 32 [0 ffffffff 3 800] ------- [3:255 -1:255 32 0] 
r 0.892516560 _13_ RTR  --- 26 message 32 [0 ffffffff 3 800] ------- [3:255 -1:255 32 0] 
r 0.892516560 _15_ RTR  --- 26 message 32 [0 ffffffff 3 800] ------- [3:255 -1:255 32 0] 
r 0.892516560 _20_ RTR  --- 26 message 32 [0 ffffffff 3 800] ------- [3:255 -1:255 32 0] 
r 0.892516560 _23_ RTR  --- 26 message 32 [0 ffffffff 3 800] ------- [3:255 -1:255 32 0] 
r 0.892516560 _25_ RTR  --- 26 message 32 [0 ffffffff 3 800] ------- [3:255 -1:255 32 0] 
r 0.892516560 _28_ RTR  --- 26 message 32 [0 ffffffff 3 800] ------- [3:255 -1:255 32 0] 
r 0.892516560 _30_ RTR  --- 26 message 32 [0 ffffffff 3 800] ------- [3:255 -1:255 32 0] 
r 0.892516560 _32_ RTR  --- 26 message 32 [0 ffffffff 3 800] ------- [3:255 -1:255 32 0] 
r 0.892516560 _34_ RTR  --- 26 message 32 [0 ffffffff 3 800] ------- [3:255 -1:255 32 0] 
r 0.892516560 _37_ RTR  --- 26 message 32 [0 ffffffff 3 800] ------- [3:255 -1:255 32 0] 
r 0.892516560 _41_ RTR  --- 26 message 32 [0 ffffffff 3 800] ------- [3:255 -1:255 32 0] 
r 0.892516560 _44_ RTR  --- 26 message 32 [0 ffffffff 3 800] ------- [3:255 -1:255 32 0] 
r 0.892516560 _46_ RTR  --- 26 message 32 [0 ffffffff 3 800] ------- [3:255 -1:255 32 0] 
M 0.90000 0 (1774.36, 2169.42, 0.00), (1774.38, 2169.21), 2.10
s 0.939728805 _24_ RTR  --- 27 message 32 [0 0 0 0] ------- [24:255 -1:255 32 0] 
r 0.940548805 _22_ RTR  --- 27 message 32 [0 ffffffff 18 800] ------- [24:255 -1:255 32 0] 
r 0.940548805 _19_ RTR  --- 27 message 32 [0 ffffffff 18 800] ------- [24:255 -1:255 32 0] 
r 0.940548805 _17_ RTR  --- 27 message 32 [0 ffffffff 18 800] ------- [24:255 -1:255 32 0] 
r 0.940548805 _12_ RTR  --- 27 message 32 [0 ffffffff 18 800] ------- [24:255 -1:255 32 0] 
r 0.940548805 _9_ RTR  --- 27 message 32 [0 ffffffff 18 800] ------- [24:255 -1:255 32 0] 
r 0.940548805 _4_ RTR  --- 27 message 32 [0 ffffffff 18 800] ------- [24:255 -1:255 32 0] 
r 0.940548805 _2_ RTR  --- 27 message 32 [0 ffffffff 18 800] ------- [24:255 -1:255 32 0] 
r 0.940548805 _38_ RTR  --- 27 message 32 [0 ffffffff 18 800] ------- [24:255 -1:255 32 0] 
r 0.940548862 _10_ RTR  --- 27 message 32 [0 ffffffff 18 800] ------- [24:255 -1:255 32 0] 
r 0.940548862 _21_ RTR  --- 27 message 32 [0 ffffffff 18 800] ------- [24:255 -1:255 32 0] 
r 0.940548862 _26_ RTR  --- 27 message 32 [0 ffffffff 18 800] ------- [24:255 -1:255 32 0] 
M 1.00000 0 (1774.38, 2169.21, 0.00), (1774.41, 2168.98), 2.27
M 1.00000 1 (5.05, 1512.84, 0.00), (5.05, 1512.84), 0.00
s 1.038916149 _23_ RTR  --- 28 message 32 [0 0 0 0] ------- [23:255 -1:255 32 0] 
r 1.040076149 _20_ RTR  --- 28 message 32 [0 ffffffff 17 800] ------- [23:255 -1:255 32 0] 
r 1.040076149 _15_ RTR  --- 28 message 32 [0 ffffffff 17 800] ------- [23:255 -1:255 32 0] 
r 1.040076149 _13_ RTR  --- 28 message 32 [0 ffffffff 17 800] ------- [23:255 -1:255 32 0] 
r 1.040076149 _11_ RTR  --- 28 message 32 [0 ffffffff 17 800] ------- [23:255 -1:255 32 0] 
r 1.040076149 _3_ RTR  --- 28 message 32 [0 ffffffff 17 800] ------- [23:255 -1:255 32 0] 
r 1.040076149 _1_ RTR  --- 28 message 32 [0 ffffffff 17 800] ------- [23:255 -1:255 32 0] 
r 1.040076149 _25_ RTR  --- 28 message 32 [0 ffffffff 17 800] ------- [23:255 -1:255 32 0] 
r 1.040076149 _28_ RTR  --- 28 message 32 [0 ffffffff 17 800] ------- [23:255 -1:255 32 0] 
r 1.040076149 _30_ RTR  --- 28 message 32 [0 ffffffff 17 800] ------- [23:255 -1:255 32 0] 
r 1.040076149 _32_ RTR  --- 28 message 32 [0 ffffffff 17 800] ------- [23:255 -1:255 32 0] 
r 1.040076149 _34_ RTR  --- 28 message 32 [0 ffffffff 17 800] ------- [23:255 -1:255 32 0] 
r 1.040076149 _37_ RTR  --- 28 message 32 [0 ffffffff 17 800] ------- [23:255 -1:255 32 0] 
r 1.040076149 _41_ RTR  --- 28 message 32 [0 ffffffff 17 800] ------- [23:255 -1:255 32 0] 
r 1.040076149 _44_ RTR  --- 28 message 32 [0 ffffffff 17 800] ------- [23:255 -1:255 32 0] 
r 1.040076149 _46_ RTR  --- 28 message 32 [0 ffffffff 17 800] ------- [23:255 -1:255 32 0] 
M 1.10000 0 (1774.41, 2168.99, 0.00), (1774.43, 2168.73), 2.53
M 1.10000 1 (5.05, 1512.84, 0.00), (5.07, 1512.84), 0.25
s 1.118315849 _0_ RTR  --- 29 message 32 [0 0 0 0] ------- [0:255 -1:255 32 0] 