V -t * -v 1.0a5 -a 0
W -t * -x 3000 -y 2500
A -t * -n 1 -p 0 -o 0x7fffffff -c 30 -a 1
A -t * -h 1 -m 1073741823 -s 0
n -t 0.000000 -s 0 -x 1645.540000 -y 789.100000 -U 0.000000 -V 0.000000 -T 0.000000
n -t 0.100000 -s 0 -x 1645.540000 -y 789.100000 -U 0.000000 -V 0.250000 -T 0.080000
n -t 0.200000 -s 0 -x 1645.540000 -y 789.120000 -U -0.096097 -V 0.480485 -T 0.104062
n -t 0.300000 -s 0 -x 1645.530390 -y 789.168048 -U -0.004068 -V 0.749989 -T 0.095937
n -t 0.400000 -s 0 -x 1645.530000 -y 789.240000 -U 0.000000 -V 0.980000 -T 0.102041
n -t 0.500000 -s 0 -x 1645.530000 -y 789.338000 -U -0.098849 -V 1.205956 -T 0.101165
n -t 0.600000 -s 0 -x 1645.520115 -y 789.458596 -U -0.001110 -V 1.460000 -T 0.103702
n -t 0.700000 -s 0 -x 1645.520004 -y 789.604596 -U -0.094524 -V 1.657307 -T 0.105837
n -t 0.800000 -s 0 -x 1645.510552 -y 789.770326 -U -0.100265 -V 1.897353 -T 0.105238
n -t 0.900000 -s 0 -x 1645.500525 -y 789.960061 -U -0.105151 -V 2.097366 -T 0.100096
n -t 1.000000 -s 0 -x 1645.490010 -y 790.169798 -U -0.000100 -V 2.270000 -T 0.101411
n -t 1.000000 -s 1 -x 1669.150000 -y 1955.810000 -U 0.000000 -V 0.000000 -T 0.000000
n -t 1.100000 -s 0 -x 1645.490000 -y 790.396798 -U -0.199221 -V 2.522144 -T 0.100392
n -t 1.100000 -s 1 -x 1669.150000 -y 1955.810000 -U 0.000000 -V -0.250000 -T 0.080000
n -t 1.200000 -s 0 -x 1645.470078 -y 790.649012 -U -0.097852 -V 2.728246 -T 0.102992
n -t 1.200000 -s 1 -x 1669.150000 -y 1955.790000 -U 0.000000 -V -0.500000 -T 0.100000
n -t 1.300000 -s 0 -x 1645.460293 -y 790.921837 -U -0.100395 -V 2.908268 -T 0.102523
n -t 1.300000 -s 1 -x 1669.150000 -y 1955.740000 -U 0.000000 -V -0.750000 -T 0.106667
n -t 1.400000 -s 0 -x 1645.450253 -y 791.212664 -U -0.102370 -V 3.168347 -T 0.100158
n -t 1.400000 -s 1 -x 1669.150000 -y 1955.665000 -U 0.000000 -V -0.970000 -T 0.108247
n -t 1.500000 -s 0 -x 1645.440016 -y 791.529498 -U -0.099383 -V 3.378539 -T 0.100784
n -t 1.500000 -s 1 -x 1669.150000 -y 1955.568000 -U -0.099643 -V -1.175785 -T 0.100358
n -t 1.600000 -s 0 -x 1645.430078 -y 791.867352 -U -0.195836 -V 3.634728 -T 0.102524
n -t 1.600000 -s 1 -x 1669.140036 -y 1955.450421 -U -0.000335 -V -1.410000 -T 0.106682
n -t 1.700000 -s 0 -x 1645.410494 -y 792.230825 -U -0.104049 -V 3.858597 -T 0.100859
n -t 1.700000 -s 1 -x 1669.140002 -y 1955.309421 -U -0.000021 -V -1.610000 -T 0.105231
n -t 1.800000 -s 0 -x 1645.400089 -y 792.616685 -U -0.198996 -V 3.995047 -T 0.100954
n -t 1.800000 -s 1 -x 1669.140000 -y 1955.148421 -U -0.000001 -V -1.800000 -T 0.104679
n -t 1.900000 -s 0 -x 1645.380190 -y 793.016190 -U -0.201751 -V 4.135081 -T 0.100073
n -t 1.900000 -s 1 -x 1669.140000 -y 1954.968421 -U -0.096808 -V -2.017679 -T 0.103298
n -t 2.000000 -s 0 -x 1645.360015 -y 793.429698 -U -0.098461 -V 4.328880 -T 0.101713
n -t 2.000000 -s 1 -x 1669.130319 -y 1954.766654 -U -0.003169 -V -2.249998 -T 0.100735
n -t 2.000000 -s 2 -x 5.050000 -y 1512.840000 -U 0.000000 -V 0.000000 -T 0.000000
n -t 2.100000 -s 0 -x 1645.350169 -y 793.862586 -U -0.197872 -V 4.585733 -T 0.101928
n -t 2.100000 -s 1 -x 1669.130002 -y 1954.541654 -U -0.000023 -V -2.470000 -T 0.101884
n -t 2.100000 -s 2 -x 5.050000 -y 1512.840000 -U 0.250000 -V 0.000000 -T 0.080000
n -t 2.200000 -s 0 -x 1645.330381 -y 794.321159 -U -0.201205 -V 4.825807 -T 0.101297
n -t 2.200000 -s 1 -x 1669.130000 -y 1954.294654 -U -0.098550 -V -2.608139 -T 0.101472
n -t 2.200000 -s 2 -x 5.070000 -y 1512.840000 -U 0.510000 -V 0.000000 -T 0.098039
n -t 2.300000 -s 0 -x 1645.310261 -y 794.803740 -U -0.199945 -V 4.996001 -T 0.101333
n -t 2.300000 -s 1 -x 1669.120145 -y 1954.033840 -U -0.001442 -V -2.820000 -T 0.100652
n -t 2.300000 -s 2 -x 5.120000 -y 1512.840000 -U 0.760000 -V 0.000000 -T 0.105263
n -t 2.400000 -s 0 -x 1645.290267 -y 795.303340 -U -0.201493 -V 5.236125 -T 0.100582
n -t 2.400000 -s 1 -x 1669.120001 -y 1953.751840 -U -0.000009 -V -3.030000 -T 0.102917
n -t 2.400000 -s 2 -x 5.196000 -y 1512.840000 -U 0.970000 -V 0.000000 -T 0.107216
n -t 2.500000 -s 0 -x 1645.270117 -y 795.826952 -U -0.198841 -V 5.466385 -T 0.101172
n -t 2.500000 -s 1 -x 1669.120000 -y 1953.448840 -U -0.099091 -V -3.258494 -T 0.100918
n -t 2.500000 -s 2 -x 5.293000 -y 1512.840000 -U 1.216235 -V -0.095767 -T 0.104421
n -t 2.600000 -s 0 -x 1645.250233 -y 796.373591 -U -0.301150 -V 5.641968 -T 0.100392
n -t 2.600000 -s 1 -x 1669.110091 -y 1953.122991 -U -0.000899 -V -3.490000 -T 0.101143
n -t 2.600000 -s 2 -x 5.414624 -y 1512.830423 -U 1.419994 -V -0.004135 -T 0.102378
n -t 2.700000 -s 0 -x 1645.220118 -y 796.937788 -U -0.200314 -V 5.896599 -T 0.100433
n -t 2.700000 -s 1 -x 1669.110001 -y 1952.773991 -U -0.097839 -V -3.658692 -T 0.102220
n -t 2.700000 -s 2 -x 5.556623 -y 1512.830010 -U 1.616968 -V -0.099069 -T 0.101039
n -t 2.800000 -s 0 -x 1645.200087 -y 797.527447 -U -0.199267 -V 6.076734 -T 0.100803
n -t 2.800000 -s 1 -x 1669.100217 -y 1952.408121 -U -0.002143 -V -3.829999 -T 0.101337
n -t 2.800000 -s 2 -x 5.718320 -y 1512.820103 -U 1.800000 -V -0.001020 -T 0.100933
n -t 2.900000 -s 0 -x 1645.180160 -y 798.135121 -U -0.299861 -V 6.212768 -T 0.100580
n -t 2.900000 -s 1 -x 1669.100003 -y 1952.025121 -U -0.097561 -V -4.048825 -T 0.102529
n -t 2.900000 -s 2 -x 5.898320 -y 1512.820001 -U 2.007533 -V -0.099550 -T 0.100462
n -t 3.000000 -s 0 -x 1645.150174 -y 798.756398 -U -0.200511 -V 6.396858 -T 0.100612
n -t 3.000000 -s 1 -x 1669.090247 -y 1951.620239 -U -0.102143 -V -4.288784 -T 0.100317
n -t 3.000000 -s 2 -x 6.099073 -y 1512.810046 -U 2.157770 -V -0.098118 -T 0.102387
n -t 3.100000 -s 0 -x 1645.130123 -y 799.396083 -U -0.300956 -V 6.633176 -T 0.100090
n -t 3.100000 -s 1 -x 1669.080032 -y 1951.191361 -U -0.000321 -V -4.470000 -T 0.100976
n -t 3.100000 -s 2 -x 6.314850 -y 1512.800234 -U 2.399999 -V -0.002293 -T 0.102146
n -t 3.200000 -s 0 -x 1645.100027 -y 800.059401 -U -0.299728 -V 6.893487 -T 0.100181
n -t 3.200000 -s 1 -x 1669.080000 -y 1950.744361 -U -0.098851 -V -4.688958 -T 0.101165
n -t 3.200000 -s 2 -x 6.554850 -y 1512.800005 -U 2.588158 -V -0.097659 -T 0.102447
n -t 3.300000 -s 0 -x 1645.070054 -y 800.748750 -U -0.296793 -V 7.023732 -T 0.101264
n -t 3.300000 -s 1 -x 1669.070115 -y 1950.275465 -U -0.100832 -V -4.938971 -T 0.100317
n -t 3.300000 -s 2 -x 6.813666 -y 1512.790239 -U 2.818199 -V -0.100776 -T 0.101602
n -t 3.400000 -s 0 -x 1645.040375 -y 801.451123 -U -0.203137 -V 7.167122 -T 0.100302
n -t 3.400000 -s 1 -x 1669.060032 -y 1949.781568 -U -0.000317 -V -5.160000 -T 0.101079
n -t 3.400000 -s 2 -x 7.095486 -y 1512.780161 -U 3.038309 -V -0.101386 -T 0.100225
n -t 3.500000 -s 0 -x 1645.020061 -y 802.167835 -U -0.299896 -V 7.403929 -T 0.100239
n -t 3.500000 -s 1 -x 1669.060000 -y 1949.265568 -U -0.098050 -V -5.349101 -T 0.101992
n -t 3.500000 -s 2 -x 7.399317 -y 1512.770023 -U 3.268499 -V -0.099066 -T 0.101173
n -t 3.600000 -s 0 -x 1644.990072 -y 802.908228 -U -0.297853 -V 7.644199 -T 0.100962
n -t 3.600000 -s 1 -x 1669.050195 -y 1948.730658 -U -0.100034 -V -5.599106 -T 0.101919
n -t 3.600000 -s 2 -x 7.726166 -y 1512.760116 -U 3.518562 -V -0.100597 -T 0.100562
n -t 3.700000 -s 0 -x 1644.960286 -y 803.672648 -U -0.300584 -V 7.814221 -T 0.100759
n -t 3.700000 -s 1 -x 1669.040192 -y 1948.170747 -U -0.100396 -V -5.819134 -T 0.101518
n -t 3.700000 -s 2 -x 8.078023 -y 1512.750057 -U 3.748701 -V -0.098694 -T 0.101896
n -t 3.800000 -s 0 -x 1644.930228 -y 804.454070 -U -0.401317 -V 8.039990 -T 0.100240
n -t 3.800000 -s 1 -x 1669.030152 -y 1947.588834 -U -0.001499 -V -5.990000 -T 0.101642
n -t 3.800000 -s 2 -x 8.452893 -y 1512.740187 -U 3.948701 -V -0.101297 -T 0.100567
n -t 3.900000 -s 0 -x 1644.890096 -y 805.258069 -U -0.301153 -V 8.224488 -T 0.099937
n -t 3.900000 -s 1 -x 1669.030002 -y 1946.989834 -U -0.098451 -V -6.199218 -T 0.101599
n -t 3.900000 -s 2 -x 8.847763 -y 1512.730057 -U 4.135337 -V -0.196440 -T 0.102105
n -t 4.000000 -s 0 -x 1644.860000 -y 806.080000 -U -0.299095 -V 8.374661 -T 0.100303
n -t 4.000000 -s 1 -x 1669.020157 -y 1946.369912 -U -0.101258 -V -6.379196 -T 0.100312
n -t 4.000000 -s 2 -x 9.261297 -y 1512.710413 -U 4.348775 -V -0.103226 -T 0.100880
n -t 4.100000 -s 0 -x 1644.830090 -y 806.917466 -U -0.398832 -V 8.580736 -T 0.100520
n -t 4.100000 -s 1 -x 1669.010032 -y 1945.731992 -U -0.100152 -V -6.509230 -T 0.100164
n -t 4.100000 -s 2 -x 9.696174 -y 1512.700091 -U 4.608909 -V -0.100270 -T 0.100637
n -t 4.200000 -s 0 -x 1644.790207 -y 807.775540 -U -0.301057 -V 8.814860 -T 0.100337
n -t 4.200000 -s 1 -x 1669.000016 -y 1945.081069 -U -0.099408 -V -6.759269 -T 0.100761
n -t 4.200000 -s 2 -x 10.157065 -y 1512.690064 -U 4.745906 -V -0.197172 -T 0.101758
n -t 4.300000 -s 0 -x 1644.760102 -y 808.657026 -U -0.398858 -V 8.981148 -T 0.100541
n -t 4.300000 -s 1 -x 1668.990076 -y 1944.405142 -U -0.100000 -V -6.899275 -T 0.100756
n -t 4.300000 -s 2 -x 10.631656 -y 1512.670347 -U 4.948933 -V -0.102750 -T 0.100697
n -t 4.400000 -s 0 -x 1644.720216 -y 809.555140 -U -0.300410 -V 9.195094 -T 0.100582
n -t 4.400000 -s 1 -x 1668.980076 -y 1943.715215 -U -0.099589 -V -7.069299 -T 0.101172
n -t 4.400000 -s 2 -x 11.126549 -y 1512.660072 -U 5.146218 -V -0.197331 -T 0.101716
n -t 4.500000 -s 0 -x 1644.690175 -y 810.474650 -U -0.401228 -V 9.341387 -T 0.100130
n -t 4.500000 -s 1 -x 1668.970117 -y 1943.008285 -U -0.100701 -V -7.249301 -T 0.100463
n -t 4.500000 -s 2 -x 11.641171 -y 1512.640339 -U 5.276099 -V -0.202917 -T 0.100231
n -t 4.600000 -s 0 -x 1644.650052 -y 811.408789 -U -0.100074 -V 9.569477 -T 0.100446
n -t 4.600000 -s 1 -x 1668.960047 -y 1942.283355 -U -0.099476 -V -7.459337 -T 0.100995
n -t 4.600000 -s 2 -x 12.168781 -y 1512.620047 -U 5.499087 -V -0.100230 -T 0.100238
n -t 4.600000 -s 3 -x 5.050000 -y 1512.840000 -U 0.000000 -V 0.000000 -T 0.000000
n -t 4.700000 -s 0 -x 1644.640045 -y 812.365736 -U 0.598260 -V 9.721609 -T 0.100216
n -t 4.700000 -s 1 -x 1668.950099 -y 1941.537421 -U -0.100147 -V -7.709350 -T 0.100841
n -t 4.700000 -s 2 -x 12.718689 -y 1512.610024 -U 5.696502 -V -0.199657 -T 0.100291
n -t 4.700000 -s 3 -x 5.050000 -y 1512.840000 -U 0.250000 -V 0.000000 -T 0.080000
n -t 4.800000 -s 0 -x 1644.699871 -y 813.337897 -U 0.697361 -V 9.865383 -T 0.100564
n -t 4.800000 -s 1 -x 1668.940084 -y 1940.766486 -U -0.100393 -V -7.929364 -T 0.100448
n -t 4.800000 -s 2 -x 13.288340 -y 1512.590058 -U 5.866630 -V -0.198888 -T 0.100852
n -t 4.800000 -s 3 -x 5.070000 -y 1512.840000 -U 0.510000 -V 0.000000 -T 0.098039
n -t 4.900000 -s 0 -x 1644.769607 -y 814.324436 -U 0.702519 -V 10.035441 -T 0.100201
n -t 4.900000 -s 1 -x 1668.930045 -y 1939.973550 -U -0.099643 -V -8.169392 -T 0.100809
n -t 4.900000 -s 2 -x 13.875003 -y 1512.570169 -U 6.006663 -V -0.200250 -T 0.100721
n -t 4.900000 -s 3 -x 5.120000 -y 1512.840000 -U 0.750000 -V 0.000000 -T 0.106667
n -t 5.000000 -s 0 -x 1644.839859 -y 815.327980 -U 0.702493 -V 10.235922 -T 0.099846
n -t 5.000000 -s 1 -x 1668.920081 -y 1939.156610 -U -0.199894 -V -8.427630 -T 0.100457
n -t 5.000000 -s 2 -x 14.475669 -y 1512.550144 -U 6.216765 -V -0.200587 -T 0.100427
n -t 5.000000 -s 3 -x 5.195000 -y 1512.840000 -U 0.980000 -V 0.000000 -T 0.107143
n -t 5.100000 -s 0 -x 1644.910000 -y 816.350000 -U 0.697748 -V 10.366545 -T 0.100323
n -t 5.100000 -s 1 -x 1668.900091 -y 1938.313847 -U -0.100223 -V -8.579415 -T 0.100688
n -t 5.100000 -s 2 -x 15.097345 -y 1512.530086 -U 6.456943 -V -0.198714 -T 0.101078
n -t 5.100000 -s 3 -x 5.293000 -y 1512.840000 -U 1.176359 -V -0.092627 -T 0.107960
n -t 5.200000 -s 0 -x 1644.979775 -y 817.386654 -U 0.699180 -V 10.586938 -T 0.100439
n -t 5.200000 -s 1 -x 1668.890069 -y 1937.455906 -U -0.100579 -V -8.749422 -T 0.100110
n -t 5.200000 -s 2 -x 15.743040 -y 1512.510214 -U 6.660000 -V -0.002139 -T 0.100144
n -t 5.200000 -s 3 -x 5.410636 -y 1512.830737 -U 1.399983 -V -0.006911 -T 0.106690
n -t 5.300000 -s 0 -x 1645.049693 -y 818.445348 -U 0.700531 -V 10.807320 -T 0.100363
n -t 5.300000 -s 1 -x 1668.880011 -y 1936.580964 -U -0.099553 -V -8.959447 -T 0.100560
n -t 5.300000 -s 2 -x 16.409040 -y 1512.510000 -U 6.839284 -V -0.098985 -T 0.101028
n -t 5.300000 -s 3 -x 5.550634 -y 1512.830046 -U 1.607175 -V -0.095332 -T 0.105381
n -t 5.400000 -s 0 -x 1645.119746 -y 819.526080 -U 0.799036 -V 10.990994 -T 0.100439
n -t 5.400000 -s 1 -x 1668.870056 -y 1935.685019 -U -0.199639 -V -9.207836 -T 0.100460
n -t 5.400000 -s 2 -x 17.092968 -y 1512.500102 -U 6.980000 -V -0.001005 -T 0.101294
n -t 5.400000 -s 3 -x 5.711352 -y 1512.820513 -U 1.809993 -V -0.004922 -T 0.104226
n -t 5.500000 -s 0 -x 1645.199650 -y 820.625180 -U 0.703481 -V 11.147826 -T 0.100003
n -t 5.500000 -s 1 -x 1668.850092 -y 1934.764236 -U -0.099819 -V -9.339467 -T 0.101102
n -t 5.500000 -s 2 -x 17.790968 -y 1512.500001 -U 7.169307 -V -0.099721 -T 0.100293
n -t 5.500000 -s 3 -x 5.892351 -y 1512.820021 -U 2.067594 -V -0.099779 -T 0.100430
n -t 5.600000 -s 0 -x 1645.269998 -y 821.739962 -U 0.798000 -V 11.271788 -T 0.100254
n -t 5.600000 -s 1 -x 1668.840110 -y 1933.830289 -U -0.100957 -V -9.489463 -T 0.100141
n -t 5.600000 -s 2 -x 18.507899 -y 1512.490029 -U 7.370000 -V -0.000290 -T 0.100692
n -t 5.600000 -s 3 -x 6.099110 -y 1512.810043 -U 2.227893 -V -0.096906 -T 0.103636
n -t 5.700000 -s 0 -x 1645.349798 -y 822.867141 -U 0.800882 -V 11.512176 -T 0.100143
n -t 5.700000 -s 1 -x 1668.830014 -y 1932.881343 -U -0.197788 -V -9.697983 -T 0.101190
n -t 5.700000 -s 2 -x 19.244899 -y 1512.490000 -U 7.530000 -V -0.000002 -T 0.100279
n -t 5.700000 -s 3 -x 6.321900 -y 1512.800352 -U 2.429998 -V -0.003451 -T 0.102099
n -t 5.800000 -s 0 -x 1645.429886 -y 824.018358 -U 0.696569 -V 11.739352 -T 0.100656
n -t 5.800000 -s 1 -x 1668.810235 -y 1931.911544 -U -0.101783 -V -9.959480 -T 0.100562
n -t 5.800000 -s 2 -x 19.997899 -y 1512.490000 -U 7.699354 -V -0.099719 -T 0.100281
n -t 5.800000 -s 3 -x 6.564900 -y 1512.800007 -U 2.568171 -V -0.096946 -T 0.103225
n -t 5.900000 -s 0 -x 1645.499543 -y 825.192294 -U 0.904484 -V 11.975893 -T 0.100010
n -t 5.900000 -s 1 -x 1668.800057 -y 1930.915596 -U -0.099626 -V -10.159512 -T 0.100949
n -t 5.900000 -s 2 -x 20.767834 -y 1512.480028 -U 7.840000 -V -0.000278 -T 0.101042
n -t 5.900000 -s 3 -x 6.821717 -y 1512.790313 -U 2.768100 -V -0.102581 -T 0.100532
n -t 6.000000 -s 0 -x 1645.589991 -y 826.389883 -U 0.795729 -V 12.234150 -T 0.100548
n -t 6.000000 -s 1 -x 1668.790095 -y 1929.899645 -U -0.199238 -V -10.308075 -T 0.100857
n -t 6.000000 -s 2 -x 21.551834 -y 1512.480000 -U 7.999388 -V -0.098985 -T 0.101028
n -t 6.000000 -s 3 -x 7.098527 -y 1512.780055 -U 2.978344 -V -0.099332 -T 0.101222
n -t 6.000000 -s 4 -x 1774.280000 -y 2170.280000 -U 0.000000 -V 0.000000 -T 0.000000
n -t 6.100000 -s 0 -x 1645.669564 -y 827.613298 -U 0.802238 -V 12.434147 -T 0.100264
n -t 6.100000 -s 1 -x 1668.770171 -y 1928.868838 -U -0.101331 -V -10.449509 -T 0.100372
n -t 6.100000 -s 2 -x 22.351773 -y 1512.470102 -U 8.150000 -V -0.001014 -T 0.100396
n -t 6.100000 -s 3 -x 7.396361 -y 1512.770121 -U 3.178446 -V -0.099402 -T 0.101823
n -t 6.100000 -s 4 -x 1774.280000 -y 2170.280000 -U 0.111803 -V -0.223607 -T 0.089443
n -t 6.200000 -s 0 -x 1645.749788 -y 828.856713 -U 0.902474 -V 12.637818 -T 0.099961
n -t 6.200000 -s 1 -x 1668.760038 -y 1927.823887 -U -0.199244 -V -10.678141 -T 0.100569
n -t 6.200000 -s 2 -x 23.166773 -y 1512.470000 -U 8.389410 -V -0.099496 -T 0.100511
n -t 6.200000 -s 3 -x 7.714206 -y 1512.760181 -U 3.378536 -V -0.099474 -T 0.102350
n -t 6.200000 -s 4 -x 1774.290000 -y 2170.260000 -U 0.000000 -V -0.490000 -T 0.102041
n -t 6.300000 -s 0 -x 1645.840000 -y 830.120000 -U 0.794752 -V 12.815380 -T 0.100660
n -t 6.300000 -s 1 -x 1668.740113 -y 1926.756073 -U -0.100384 -V -10.879537 -T 0.100746
n -t 6.300000 -s 2 -x 24.005714 -y 1512.460051 -U 8.610000 -V -0.000506 -T 0.100382
n -t 6.300000 -s 3 -x 8.052059 -y 1512.750234 -U 3.538554 -V -0.101170 -T 0.101155
n -t 6.300000 -s 4 -x 1774.290000 -y 2170.211000 -U 0.101812 -V -0.722865 -T 0.098220
n -t 6.400000 -s 0 -x 1645.919475 -y 831.401538 -U 0.905516 -V 12.988473 -T 0.099970
n -t 6.400000 -s 1 -x 1668.730075 -y 1925.668119 -U -0.199798 -V -11.128207 -T 0.100476
n -t 6.400000 -s 2 -x 24.866714 -y 1512.460000 -U 8.759439 -V -0.099171 -T 0.100838
n -t 6.400000 -s 3 -x 8.405915 -y 1512.740117 -U 3.788686 -V -0.099794 -T 0.101377
n -t 6.400000 -s 4 -x 1774.300000 -y 2170.140000 -U 0.098509 -V -0.985087 -T 0.101514
n -t 6.500000 -s 0 -x 1646.010000 -y 832.700000 -U 0.894571 -V 13.219767 -T 0.100607
n -t 6.500000 -s 1 -x 1668.710095 -y 1924.555298 -U -0.100128 -V -11.359559 -T 0.100822
n -t 6.500000 -s 2 -x 25.742658 -y 1512.450083 -U 9.000000 -V -0.000825 -T 0.100816
n -t 6.500000 -s 3 -x 8.784783 -y 1512.730137 -U 3.928708 -V -0.100772 -T 0.100597
n -t 6.500000 -s 4 -x 1774.309851 -y 2170.041491 -U 0.103227 -V -1.235696 -T 0.098318
n -t 6.600000 -s 0 -x 1646.099457 -y 834.021977 -U 0.903378 -V 13.449695 -T 0.100227
n -t 6.600000 -s 1 -x 1668.700082 -y 1923.419342 -U -0.298558 -V -11.506127 -T 0.100759
n -t 6.600000 -s 2 -x 26.642658 -y 1512.450001 -U 9.199465 -V -0.099209 -T 0.100804
n -t 6.600000 -s 3 -x 9.177654 -y 1512.720060 -U 4.155316 -V -0.197365 -T 0.101640
n -t 6.600000 -s 4 -x 1774.320000 -y 2169.920000 -U 0.098448 -V -1.476722 -T 0.101576
n -t 6.700000 -s 0 -x 1646.189795 -y 835.366946 -U 0.899386 -V 13.590272 -T 0.100296
n -t 6.700000 -s 1 -x 1668.670227 -y 1922.268730 -U -0.201424 -V -11.738272 -T 0.100418
n -t 6.700000 -s 2 -x 27.562604 -y 1512.440080 -U 9.340000 -V -0.000795 -T 0.100364
n -t 6.700000 -s 3 -x 9.593186 -y 1512.700324 -U 4.348786 -V -0.102779 -T 0.100445
n -t 6.700000 -s 4 -x 1774.329845 -y 2169.772328 -U 0.198645 -V -1.698423 -T 0.101463
n -t 6.800000 -s 0 -x 1646.279734 -y 836.725974 -U 0.999302 -V 13.793850 -T 0.100336
n -t 6.800000 -s 1 -x 1668.650084 -y 1921.094902 -U -0.299274 -V -11.986264 -T 0.100524
n -t 6.800000 -s 2 -x 28.496604 -y 1512.440000 -U 9.519476 -V -0.099851 -T 0.100152
n -t 6.800000 -s 3 -x 10.028064 -y 1512.690046 -U 4.595675 -V -0.199430 -T 0.100515
n -t 6.800000 -s 4 -x 1774.349709 -y 2169.602486 -U 0.199183 -V -1.889531 -T 0.101869
n -t 6.900000 -s 0 -x 1646.379664 -y 838.105358 -U 0.897773 -V 13.760745 -T 0.100623
n -t 6.900000 -s 1 -x 1668.620157 -y 1919.896276 -U -0.298950 -V -12.156325 -T 0.100876
n -t 6.900000 -s 2 -x 29.448552 -y 1512.430015 -U 9.769491 -V -0.099693 -T 0.100461
n -t 6.900000 -s 3 -x 10.487632 -y 1512.670103 -U 4.798948 -V -0.100510 -T 0.100515
n -t 6.900000 -s 4 -x 1774.369628 -y 2169.413532 -U 0.197548 -V -2.070598 -T 0.103126
n -t 7.000000 -s 0 -x 1646.469441 -y 839.481433 -U 0.898745 -V 13.780724 -T 0.100762
n -t 7.000000 -s 1 -x 1668.590262 -y 1918.680644 -U -0.201029 -V -12.408372 -T 0.100790
n -t 7.000000 -s 2 -x 30.425501 -y 1512.420046 -U 9.970000 -V -0.000456 -T 0.100752
n -t 7.000000 -s 3 -x 10.967526 -y 1512.660052 -U 4.956055 -V -0.197777 -T 0.101386
n -t 7.000000 -s 4 -x 1774.389382 -y 2169.206473 -U 0.202380 -V -2.321194 -T 0.101875
n -t 7.100000 -s 0 -x 1646.559316 -y 840.859505 -U 1.004545 -V 13.773416 -T 0.100229
n -t 7.100000 -s 1 -x 1668.570159 -y 1917.439806 -U -0.300125 -V -12.636436 -T 0.100488
n -t 7.100000 -s 2 -x 31.422501 -y 1512.420000 -U 10.109512 -V -0.099360 -T 0.100648
n -t 7.100000 -s 3 -x 11.463132 -y 1512.640274 -U 5.169017 -V -0.100797 -T 0.101928
n -t 7.100000 -s 4 -x 1774.409620 -y 2168.974353 -U 0.199668 -V -2.492014 -T 0.102067
n -t 7.200000 -s 0 -x 1646.659770 -y 842.236847 -U 0.899635 -V 13.790687 -T 0.100296
n -t 7.200000 -s 1 -x 1668.540146 -y 1916.176163 -U -0.299949 -V -12.896512 -T 0.100505
n -t 7.200000 -s 2 -x 32.433452 -y 1512.410064 -U 10.290000 -V -0.000639 -T 0.100734
n -t 7.200000 -s 3 -x 11.980034 -y 1512.630194 -U 5.396227 -V -0.201815 -T 0.100064
n -t 7.200000 -s 4 -x 1774.429587 -y 2168.725152 -U 0.301021 -V -2.723414 -T 0.101032
n -t 7.300000 -s 0 -x 1646.749734 -y 843.615916 -U 0.994925 -V 13.734010 -T 0.100778
n -t 7.300000 -s 1 -x 1668.510151 -y 1914.886512 -U -0.298800 -V -13.046579 -T 0.100909
n -t 7.300000 -s 2 -x 33.462452 -y 1512.410000 -U 10.519530 -V -0.099476 -T 0.100532
n -t 7.300000 -s 3 -x 12.519656 -y 1512.610013 -U 5.539116 -V -0.098979 -T 0.101161
n -t 7.300000 -s 5 -x 5.050000 -y 1512.840000 -U 0.000000 -V 0.000000 -T 0.000000
n -t 7.300000 -s 4 -x 1774.459689 -y 2168.452810 -U 0.202751 -V -2.922977 -T 0.100175
n -t 7.400000 -s 0 -x 1646.849226 -y 844.989317 -U 1.101317 -V 13.826207 -T 0.100583
n -t 7.400000 -s 1 -x 1668.480271 -y 1913.581854 -U -0.301307 -V -13.256576 -T 0.100467
n -t 7.400000 -s 2 -x 34.514405 -y 1512.400053 -U 10.749530 -V -0.100469 -T 0.100060
n -t 7.400000 -s 3 -x 13.073568 -y 1512.600115 -U 5.736508 -V -0.200179 -T 0.100485
n -t 7.400000 -s 5 -x 5.050000 -y 1512.840000 -U 0.260000 -V 0.000000 -T 0.076923
n -t 7.400000 -s 4 -x 1774.479964 -y 2168.160513 -U 0.294835 -V -3.146216 -T 0.101872
n -t 7.500000 -s 0 -x 1646.959358 -y 846.371937 -U 1.003703 -V 13.743398 -T 0.100271
n -t 7.500000 -s 1 -x 1668.450141 -y 1912.256196 -U -0.299513 -V -13.476672 -T 0.100633
n -t 7.500000 -s 2 -x 35.589358 -y 1512.390006 -U 10.880000 -V -0.000060 -T 0.100243
n -t 7.500000 -s 3 -x 13.647219 -y 1512.580097 -U 5.946696 -V -0.198266 -T 0.101364
n -t 7.500000 -s 5 -x 5.070000 -y 1512.840000 -U 0.520000 -V 0.000000 -T 0.096154
n -t 7.500000 -s 4 -x 1774.509448 -y 2167.845891 -U 0.300740 -V -3.306351 -T 0.101590
n -t 7.600000 -s 0 -x 1647.059728 -y 847.746277 -U 1.097865 -V 13.776324 -T 0.100442
n -t 7.600000 -s 1 -x 1668.420190 -y 1910.908529 -U -0.300613 -V -13.726709 -T 0.100427
n -t 7.600000 -s 2 -x 36.677358 -y 1512.390000 -U 11.139558 -V -0.099226 -T 0.100780
n -t 7.600000 -s 3 -x 14.241888 -y 1512.560270 -U 6.206769 -V -0.200305 -T 0.101198
n -t 7.600000 -s 5 -x 5.120000 -y 1512.840000 -U 0.740000 -V 0.000000 -T 0.108108
n -t 7.600000 -s 4 -x 1774.539522 -y 2167.515256 -U 0.403021 -V -3.537114 -T 0.100437
n -t 7.700000 -s 0 -x 1647.169515 -y 849.123910 -U 1.001435 -V 13.813748 -T 0.100341
n -t 7.700000 -s 1 -x 1668.390128 -y 1909.535858 -U -0.298870 -V -13.846775 -T 0.100807
n -t 7.700000 -s 2 -x 37.791314 -y 1512.380077 -U 11.400000 -V -0.000768 -T 0.100762
n -t 7.700000 -s 3 -x 14.862565 -y 1512.540240 -U 6.366791 -V -0.202159 -T 0.100119
n -t 7.700000 -s 5 -x 5.194000 -y 1512.840000 -U 0.970000 -V 0.000000 -T 0.109278
n -t 7.700000 -s 4 -x 1774.579824 -y 2167.161545 -U 0.298814 -V -3.778202 -T 0.100986
n -t 7.800000 -s 0 -x 1647.269658 -y 850.505284 -U 1.097775 -V 13.776331 -T 0.100514
n -t 7.800000 -s 1 -x 1668.360241 -y 1908.151180 -U -0.300564 -V -13.826734 -T 0.100615
n -t 7.800000 -s 2 -x 38.931314 -y 1512.380001 -U 11.559569 -V -0.099770 -T 0.100236
n -t 7.800000 -s 3 -x 15.499244 -y 1512.520024 -U 6.519250 -V -0.098900 -T 0.101355
n -t 7.800000 -s 5 -x 5.291000 -y 1512.840000 -U 1.196411 -V -0.092745 -T 0.107823
n -t 7.800000 -s 4 -x 1774.609705 -y 2166.783725 -U 0.395268 -V -3.960324 -T 0.101942
n -t 7.900000 -s 0 -x 1647.379436 -y 851.882917 -U 1.001505 -V 13.813743 -T 0.100413
n -t 7.900000 -s 1 -x 1668.330185 -y 1906.768507 -U -0.299277 -V -13.766747 -T 0.100859
n -t 7.900000 -s 2 -x 40.087271 -y 1512.370024 -U 11.789577 -V -0.099916 -T 0.100320
n -t 7.900000 -s 3 -x 16.151169 -y 1512.510134 -U 6.759247 -V -0.100906 -T 0.100430
n -t 7.900000 -s 5 -x 5.410641 -y 1512.830725 -U 1.449983 -V -0.007043 -T 0.103007
n -t 7.900000 -s 4 -x 1774.649232 -y 2166.387692 -U 0.407020 -V -4.170184 -T 0.100162
n -t 8.000000 -s 0 -x 1647.479586 -y 853.264292 -U 1.096910 -V 13.766368 -T 0.100659
n -t 8.000000 -s 1 -x 1668.300257 -y 1905.391832 -U -0.301233 -V -13.856726 -T 0.100445
n -t 8.000000 -s 2 -x 41.266229 -y 1512.360032 -U 11.919579 -V -0.100167 -T 0.100152
n -t 8.000000 -s 3 -x 16.827094 -y 1512.500043 -U 6.910000 -V -0.000433 -T 0.100276
n -t 8.000000 -s 5 -x 5.555639 -y 1512.830021 -U 1.647282 -V -0.094676 -T 0.105848
n -t 8.000000 -s 4 -x 1774.689934 -y 2165.970674 -U 0.398402 -V -4.381926 -T 0.100566
n -t 8.000000 -s 6 -x 1653.010000 -y 773.630000 -U 0.000000 -V 0.000000 -T 0.000000
n -t 8.100000 -s 0 -x 1647.589277 -y 854.640928 -U 1.004500 -V 13.753366 -T 0.100272
n -t 8.100000 -s 1 -x 1668.270134 -y 1904.006160 -U -0.399116 -V -13.884265 -T 0.100557
n -t 8.100000 -s 2 -x 42.458186 -y 1512.350015 -U 12.130000 -V -0.000151 -T 0.100727
n -t 8.100000 -s 3 -x 17.518094 -y 1512.500000 -U 7.050000 -V -0.000001 -T 0.100980
n -t 8.100000 -s 5 -x 5.720368 -y 1512.820554 -U 1.839992 -V -0.005372 -T 0.103062
n -t 8.100000 -s 4 -x 1774.729774 -y 2165.532481 -U 0.402021 -V -4.522165 -T 0.100059
n -t 8.100000 -s 6 -x 1653.010000 -y 773.630000 -U 0.116276 -V 0.232551 -T 0.086003
n -t 8.200000 -s 0 -x 1647.689727 -y 856.016265 -U 1.095558 -V 13.846727 -T 0.100654
n -t 8.200000 -s 1 -x 1668.230222 -y 1902.617733 -U -0.300903 -V -13.816724 -T 0.100439
n -t 8.200000 -s 2 -x 43.671186 -y 1512.350000 -U 12.329598 -V -0.099529 -T 0.100475
n -t 8.200000 -s 3 -x 18.223094 -y 1512.500000 -U 7.259313 -V -0.099866 -T 0.100134
n -t 8.200000 -s 5 -x 5.904367 -y 1512.820016 -U 2.077760 -V -0.096515 -T 0.103782
n -t 8.200000 -s 4 -x 1774.769976 -y 2165.080265 -U 0.398569 -V -4.683070 -T 0.100418
n -t 8.200000 -s 6 -x 1653.020000 -y 773.650000 -U 0.000000 -V 0.500000 -T 0.100000
n -t 8.300000 -s 0 -x 1647.799283 -y 857.400938 -U 1.005906 -V 13.773317 -T 0.100126
n -t 8.300000 -s 1 -x 1668.200132 -y 1901.236061 -U -0.299279 -V -13.766747 -T 0.100682
n -t 8.300000 -s 2 -x 44.904146 -y 1512.340047 -U 12.559598 -V -0.100481 -T 0.099992
n -t 8.300000 -s 3 -x 18.949025 -y 1512.490013 -U 7.400000 -V -0.000134 -T 0.100132
n -t 8.300000 -s 5 -x 6.112143 -y 1512.810365 -U 2.277838 -V -0.099260 -T 0.104422
n -t 8.300000 -s 4 -x 1774.809833 -y 2164.611958 -U 0.492020 -V -4.824978 -T 0.101961
n -t 8.300000 -s 6 -x 1653.020000 -y 773.700000 -U 0.091786 -V 0.734286 -T 0.108949
n -t 8.400000 -s 0 -x 1647.899874 -y 858.778269 -U 1.094024 -V 13.726471 -T 0.100662
n -t 8.400000 -s 1 -x 1668.170204 -y 1899.859386 -U -0.301446 -V -13.766700 -T 0.100197
n -t 8.400000 -s 2 -x 46.160000 -y 1512.330000 -U 12.730000 -V 0.000000 -T 0.100550
n -t 8.400000 -s 3 -x 19.689025 -y 1512.490000 -U 7.589345 -V -0.099732 -T 0.100269
n -t 8.400000 -s 5 -x 6.339927 -y 1512.800439 -U 2.499996 -V -0.004388 -T 0.100030
n -t 8.400000 -s 4 -x 1774.859035 -y 2164.129460 -U 0.504667 -V -5.044820 -T 0.100987
n -t 8.400000 -s 6 -x 1653.029179 -y 773.773429 -U 0.008336 -V 0.979965 -T 0.098546
n -t 8.500000 -s 0 -x 1648.009276 -y 860.150917 -U 1.004503 -V 13.753366 -T 0.100272
n -t 8.500000 -s 1 -x 1668.140059 -y 1898.482716 -U -0.297997 -V -13.806784 -T 0.100872
n -t 8.500000 -s 2 -x 47.433000 -y 1512.330000 -U 12.989620 -V -0.099385 -T 0.100619
n -t 8.500000 -s 3 -x 20.447960 -y 1512.480027 -U 7.790000 -V -0.000267 -T 0.100390
n -t 8.500000 -s 5 -x 6.589926 -y 1512.800000 -U 2.628199 -V -0.097315 -T 0.102760
n -t 8.500000 -s 4 -x 1774.909502 -y 2163.624978 -U 0.400721 -V -5.194567 -T 0.101063
n -t 8.500000 -s 6 -x 1653.030000 -y 773.870000 -U 0.097994 -V 1.175924 -T 0.102047
n -t 8.600000 -s 0 -x 1648.109726 -y 861.526253 -U 1.102630 -V 13.836134 -T 0.100010
n -t 8.600000 -s 1 -x 1668.110260 -y 1897.102038 -U -0.301642 -V -13.776698 -T 0.100317
n -t 8.600000 -s 2 -x 48.731962 -y 1512.320061 -U 13.199621 -V -0.100003 -T 0.100612
n -t 8.600000 -s 3 -x 21.226960 -y 1512.480000 -U 8.049391 -V -0.099005 -T 0.101006
n -t 8.600000 -s 5 -x 6.852746 -y 1512.790269 -U 2.758109 -V -0.102151 -T 0.100523
n -t 8.600000 -s 4 -x 1774.949574 -y 2163.105521 -U 0.597810 -V -5.396992 -T 0.101079
n -t 8.600000 -s 6 -x 1653.039799 -y 773.987592 -U 0.098597 -V 1.376473 -T 0.103458
n -t 8.700000 -s 0 -x 1648.219989 -y 862.909867 -U 0.995997 -V 13.844219 -T 0.100413
n -t 8.700000 -s 1 -x 1668.080096 -y 1895.724368 -U -0.299512 -V -13.876768 -T 0.100482
n -t 8.700000 -s 2 -x 50.051924 -y 1512.310061 -U 13.429626 -V -0.100230 -T 0.100381
n -t 8.700000 -s 3 -x 22.031899 -y 1512.470100 -U 8.300000 -V -0.000987 -T 0.100976
n -t 8.700000 -s 5 -x 7.128557 -y 1512.780053 -U 2.948361 -V -0.098331 -T 0.102241
n -t 8.700000 -s 4 -x 1775.009355 -y 2162.565822 -U 0.496772 -V -5.648196 -T 0.101948
n -t 8.700000 -s 6 -x 1653.049659 -y 774.125240 -U 0.204594 -V 1.556612 -T 0.099421
n -t 8.800000 -s 0 -x 1648.319589 -y 864.294288 -U 1.101601 -V 13.725865 -T 0.100228
n -t 8.800000 -s 1 -x 1668.050144 -y 1894.336691 -U -0.299067 -V -13.856773 -T 0.100795
n -t 8.800000 -s 2 -x 51.394887 -y 1512.300038 -U 13.589633 -V -0.099929 -T 0.100453
n -t 8.800000 -s 3 -x 22.861899 -y 1512.470001 -U 8.449413 -V -0.099637 -T 0.100374
n -t 8.800000 -s 5 -x 7.423393 -y 1512.770220 -U 3.138365 -V -0.101309 -T 0.100883
n -t 8.800000 -s 4 -x 1775.059032 -y 2162.001002 -U 0.501776 -V -5.818404 -T 0.101575
n -t 8.800000 -s 6 -x 1653.070000 -y 774.280000 -U 0.097627 -V 1.757290 -T 0.102430
n -t 8.900000 -s 0 -x 1648.429749 -y 865.666875 -U 1.000518 -V 13.803788 -T 0.100199
n -t 8.900000 -s 1 -x 1668.020238 -y 1892.951014 -U -0.301645 -V -13.776698 -T 0.100243
n -t 8.900000 -s 2 -x 52.753850 -y 1512.290045 -U 13.830000 -V -0.000451 -T 0.100228
n -t 8.900000 -s 3 -x 23.706840 -y 1512.460037 -U 8.670000 -V -0.000370 -T 0.100710
n -t 8.900000 -s 5 -x 7.737230 -y 1512.760089 -U 3.328558 -V -0.097976 -T 0.102979
n -t 8.900000 -s 4 -x 1775.109210 -y 2161.419162 -U 0.596792 -V -5.980296 -T 0.101862
n -t 8.900000 -s 6 -x 1653.079763 -y 774.455729 -U 0.197176 -V 1.990257 -T 0.102635
n -t 9.000000 -s 0 -x 1648.529801 -y 867.047254 -U 1.094813 -V 13.836755 -T 0.100656
n -t 9.000000 -s 1 -x 1667.990073 -y 1891.573344 -U -0.299077 -V -13.856773 -T 0.100553
n -t 9.000000 -s 2 -x 54.136850 -y 1512.290000 -U 13.979645 -V -0.099631 -T 0.100371
n -t 9.000000 -s 3 -x 24.573840 -y 1512.460000 -U 8.879447 -V -0.099086 -T 0.100925
n -t 9.000000 -s 5 -x 8.070085 -y 1512.750292 -U 3.468500 -V -0.102017 -T 0.100884
n -t 9.000000 -s 4 -x 1775.168889 -y 2160.821132 -U 0.603318 -V -6.230859 -T 0.101291
n -t 9.000000 -s 6 -x 1653.099480 -y 774.654755 -U 0.203221 -V 2.230763 -T 0.100972
n -t 9.000000 -s 7 -x 2214.650000 -y 1533.860000 -U 0.000000 -V 0.000000 -T 0.000000
n -t 9.100000 -s 0 -x 1648.639282 -y 868.430929 -U 1.003722 -V 13.743396 -T 0.100344
n -t 9.100000 -s 1 -x 1667.960165 -y 1890.187667 -U -0.300352 -V -13.816736 -T 0.100434