V -t * -v 1.0a5 -a 0
W -t * -x 3000 -y 2500
A -t * -n 1 -p 0 -o 0x7fffffff -c 30 -a 1
A -t * -h 1 -m 1073741823 -s 0
n -t 0.000000 -s 0 -x 5.050000 -y 1512.840000 -U 0.000000 -V 0.000000 -T 0.000000
n -t 0.100000 -s 0 -x 5.050000 -y 1512.840000 -U 0.250000 -V 0.000000 -T 0.080000
n -t 0.200000 -s 0 -x 5.070000 -y 1512.840000 -U 0.490000 -V 0.000000 -T 0.102041
n -t 0.300000 -s 0 -x 5.119000 -y 1512.840000 -U 0.750000 -V 0.000000 -T 0.108000
n -t 0.400000 -s 0 -x 5.194000 -y 1512.840000 -U 0.980000 -V 0.000000 -T 0.097959
n -t 0.500000 -s 0 -x 5.290000 -y 1512.840000 -U 1.206436 -V -0.092803 -T 0.107755
n -t 0.600000 -s 0 -x 5.410644 -y 1512.830720 -U 1.459983 -V -0.007035 -T 0.102300
n -t 0.700000 -s 0 -x 5.556642 -y 1512.830016 -U 1.657236 -V -0.095751 -T 0.104607
n -t 0.800000 -s 0 -x 5.722366 -y 1512.820441 -U 1.899995 -V -0.004241 -T 0.104018
n -t 0.900000 -s 0 -x 5.912365 -y 1512.820017 -U 2.097779 -V -0.096554 -T 0.103745
n -t 1.000000 -s 0 -x 6.122143 -y 1512.810362 -U 2.267657 -V -0.103120 -T 0.100481
n -t 1.100000 -s 0 -x 6.348909 -y 1512.800050 -U 2.528128 -V -0.097310 -T 0.103275
n -t 1.200000 -s 0 -x 6.601721 -y 1512.790319 -U 2.699998 -V -0.003092 -T 0.103066
n -t 1.300000 -s 0 -x 6.871721 -y 1512.790009 -U 2.898369 -V -0.097262 -T 0.102913
n -t 1.400000 -s 0 -x 7.161558 -y 1512.780283 -U 3.098385 -V -0.100055 -T 0.102777
n -t 1.500000 -s 0 -x 7.471397 -y 1512.770278 -U 3.288392 -V -0.102852 -T 0.099928
n -t 1.600000 -s 0 -x 7.800000 -y 1512.760000 -U 3.508647 -V -0.097462 -T 0.102604
n -t 1.700000 -s 0 -x 8.150865 -y 1512.750254 -U 3.768622 -V -0.101923 -T 0.100603
n -t 1.800000 -s 0 -x 8.527727 -y 1512.740061 -U 3.904897 -V -0.199703 -T 0.100457
n -t 1.900000 -s 0 -x 8.918217 -y 1512.720091 -U 4.128818 -V -0.098782 -T 0.102156
n -t 2.000000 -s 0 -x 9.331098 -y 1512.710213 -U 4.298836 -V -0.100031 -T 0.102098
n -t 2.100000 -s 0 -x 9.760982 -y 1512.700210 -U 4.555587 -V -0.200575 -T 0.100759
n -t 2.200000 -s 0 -x 10.216541 -y 1512.680152 -U 4.748953 -V -0.099725 -T 0.101803
n -t 2.300000 -s 0 -x 10.691436 -y 1512.670180 -U 4.965934 -V -0.201001 -T 0.100397
n -t 2.400000 -s 0 -x 11.188029 -y 1512.650080 -U 5.149040 -V -0.099433 -T 0.101372
n -t 2.500000 -s 0 -x 11.702933 -y 1512.640136 -U 5.276293 -V -0.197826 -T 0.101789
n -t 2.600000 -s 0 -x 12.230563 -y 1512.620354 -U 5.436271 -V -0.201386 -T 0.101069
n -t 2.600000 -s 1 -x 5.050000 -y 1512.840000 -U 0.000000 -V 0.000000 -T 0.000000
n -t 2.700000 -s 0 -x 12.774190 -y 1512.600215 -U 5.579091 -V -0.100726 -T 0.101416
n -t 2.700000 -s 1 -x 5.050000 -y 1512.840000 -U 0.250000 -V 0.000000 -T 0.080000
n -t 2.800000 -s 0 -x 13.332099 -y 1512.590143 -U 5.766498 -V -0.200990 -T 0.100217
n -t 2.800000 -s 1 -x 5.070000 -y 1512.840000 -U 0.510000 -V 0.000000 -T 0.098039
n -t 2.900000 -s 0 -x 13.908749 -y 1512.570044 -U 6.026761 -V -0.197624 -T 0.101423
n -t 2.900000 -s 1 -x 5.120000 -y 1512.840000 -U 0.760000 -V 0.000000 -T 0.105263
n -t 3.000000 -s 0 -x 14.511425 -y 1512.550281 -U 6.186676 -V -0.202842 -T 0.099985
n -t 3.000000 -s 1 -x 5.196000 -y 1512.840000 -U 1.010000 -V 0.000000 -T 0.102970
n -t 3.000000 -s 2 -x 1669.150000 -y 1955.810000 -U 0.000000 -V 0.000000 -T 0.000000
n -t 3.100000 -s 0 -x 15.130000 -y 1512.530000 -U 6.316916 -V -0.197404 -T 0.101315
n -t 3.100000 -s 1 -x 5.297000 -y 1512.840000 -U 1.266425 -V -0.095220 -T 0.105020
n -t 3.100000 -s 2 -x 1669.150000 -y 1955.810000 -U 0.000000 -V -0.250000 -T 0.080000
n -t 3.200000 -s 0 -x 15.761692 -y 1512.510260 -U 6.539999 -V -0.002579 -T 0.100659
n -t 3.200000 -s 1 -x 5.423643 -y 1512.830478 -U 1.519993 -V -0.004647 -T 0.102867
n -t 3.200000 -s 2 -x 1669.150000 -y 1955.790000 -U 0.000000 -V -0.510000 -T 0.117647
n -t 3.300000 -s 0 -x 16.415692 -y 1512.510002 -U 6.749279 -V -0.098646 -T 0.101390
n -t 3.300000 -s 1 -x 5.575642 -y 1512.830013 -U 1.687220 -V -0.096896 -T 0.103341
n -t 3.300000 -s 2 -x 1669.150000 -y 1955.739000 -U 0.000000 -V -0.760000 -T 0.103947
n -t 3.400000 -s 0 -x 17.090619 -y 1512.500137 -U 6.980000 -V -0.001368 -T 0.100198
n -t 3.400000 -s 1 -x 5.744364 -y 1512.820324 -U 1.939997 -V -0.003210 -T 0.100844
n -t 3.400000 -s 2 -x 1669.150000 -y 1955.663000 -U 0.000000 -V -0.990000 -T 0.104040
n -t 3.500000 -s 0 -x 17.788619 -y 1512.500000 -U 7.209307 -V -0.099940 -T 0.100062
n -t 3.500000 -s 1 -x 5.938364 -y 1512.820003 -U 2.107647 -V -0.099615 -T 0.100414
n -t 3.500000 -s 2 -x 1669.150000 -y 1955.564000 -U -0.099676 -V -1.235987 -T 0.100325
n -t 3.600000 -s 0 -x 18.509550 -y 1512.490006 -U 7.380000 -V -0.000062 -T 0.100332
n -t 3.600000 -s 1 -x 6.149128 -y 1512.810041 -U 2.277847 -V -0.099069 -T 0.101355
n -t 3.600000 -s 2 -x 1669.140032 -y 1955.440401 -U -0.000314 -V -1.460000 -T 0.103015
n -t 3.700000 -s 0 -x 19.247550 -y 1512.490000 -U 7.550000 -V -0.000000 -T 0.100987
n -t 3.700000 -s 1 -x 6.376913 -y 1512.800134 -U 2.417900 -V -0.100802 -T 0.100536
n -t 3.700000 -s 2 -x 1669.140001 -y 1955.294401 -U -0.000009 -V -1.640000 -T 0.100245
n -t 3.800000 -s 0 -x 20.002550 -y 1512.490000 -U 7.769357 -V -0.099934 -T 0.100066
n -t 3.800000 -s 1 -x 6.618703 -y 1512.790054 -U 2.620000 -V -0.000542 -T 0.099732
n -t 3.800000 -s 2 -x 1669.140000 -y 1955.130401 -U -0.000000 -V -1.840000 -T 0.103479
n -t 3.900000 -s 0 -x 20.779486 -y 1512.480007 -U 8.010000 -V -0.000066 -T 0.099939
n -t 3.900000 -s 1 -x 6.880000 -y 1512.790000 -U 2.748248 -V -0.098152 -T 0.101883
n -t 3.900000 -s 2 -x 1669.140000 -y 1954.946401 -U -0.096015 -V -2.077783 -T 0.104150
n -t 4.000000 -s 0 -x 21.580000 -y 1512.480000 -U 8.179392 -V -0.099749 -T 0.100252
n -t 4.000000 -s 1 -x 7.154825 -y 1512.780185 -U 2.988336 -V -0.099732 -T 0.102122
n -t 4.000000 -s 2 -x 1669.130398 -y 1954.738623 -U -0.003908 -V -2.339997 -T 0.101976
n -t 4.100000 -s 0 -x 22.397939 -y 1512.470025 -U 8.410000 -V -0.000251 -T 0.100126
n -t 4.100000 -s 1 -x 7.453658 -y 1512.770212 -U 3.178444 -V -0.099458 -T 0.102673
n -t 4.100000 -s 2 -x 1669.130008 -y 1954.504623 -U -0.000075 -V -2.480000 -T 0.102671
n -t 4.200000 -s 0 -x 23.238939 -y 1512.470000 -U 8.659429 -V -0.099413 -T 0.100591
n -t 4.200000 -s 1 -x 7.771503 -y 1512.760266 -U 3.418517 -V -0.100701 -T 0.101944
n -t 4.200000 -s 2 -x 1669.130000 -y 1954.256623 -U -0.097824 -V -2.608166 -T 0.102226
n -t 4.300000 -s 0 -x 24.104882 -y 1512.460059 -U 8.880000 -V -0.000583 -T 0.100802
n -t 4.300000 -s 1 -x 8.113355 -y 1512.750196 -U 3.638593 -V -0.101183 -T 0.100766
n -t 4.300000 -s 2 -x 1669.120218 -y 1953.995807 -U -0.002179 -V -2.859999 -T 0.099932
n -t 4.400000 -s 0 -x 24.992882 -y 1512.460000 -U 9.059449 -V -0.099875 -T 0.100129
n -t 4.400000 -s 1 -x 8.477214 -y 1512.740077 -U 3.864954 -V -0.197559 -T 0.101628
n -t 4.400000 -s 2 -x 1669.120000 -y 1953.710000 -U -0.099626 -V -3.088394 -T 0.100376
n -t 4.500000 -s 0 -x 25.898827 -y 1512.450013 -U 9.320000 -V -0.000128 -T 0.100984
n -t 4.500000 -s 1 -x 8.863709 -y 1512.720322 -U 4.118734 -V -0.102120 -T 0.101072
n -t 4.500000 -s 2 -x 1669.110037 -y 1953.401161 -U -0.000369 -V -3.260000 -T 0.101583
n -t 4.600000 -s 0 -x 26.830827 -y 1512.450000 -U 9.529482 -V -0.099352 -T 0.100653
n -t 4.600000 -s 1 -x 9.275583 -y 1512.710110 -U 4.338825 -V -0.100971 -T 0.100123
n -t 4.600000 -s 2 -x 1669.110001 -y 1953.075161 -U -0.000006 -V -3.490000 -T 0.101765
n -t 4.700000 -s 0 -x 27.783775 -y 1512.440065 -U 9.699485 -V -0.100002 -T 0.100647
n -t 4.700000 -s 1 -x 9.709465 -y 1512.700012 -U 4.545710 -V -0.197533 -T 0.101312
n -t 4.700000 -s 2 -x 1669.110000 -y 1952.726161 -U -0.097530 -V -3.668704 -T 0.102532
n -t 4.800000 -s 0 -x 28.753724 -y 1512.430065 -U 9.910000 -V -0.000644 -T 0.100532
n -t 4.800000 -s 1 -x 10.164036 -y 1512.680259 -U 4.738899 -V -0.102145 -T 0.100438
n -t 4.800000 -s 2 -x 1669.100247 -y 1952.359290 -U -0.002430 -V -3.829999 -T 0.101642
n -t 4.900000 -s 0 -x 29.744724 -y 1512.430000 -U 10.099510 -V -0.099479 -T 0.100527
n -t 4.900000 -s 1 -x 10.637926 -y 1512.670045 -U 4.949010 -V -0.099012 -T 0.101449
n -t 4.900000 -s 2 -x 1669.100004 -y 1951.976290 -U -0.099446 -V -4.038776 -T 0.100597
n -t 5.000000 -s 0 -x 30.754675 -y 1512.420052 -U 10.230000 -V -0.000523 -T 0.100227
n -t 5.000000 -s 1 -x 11.132827 -y 1512.660144 -U 5.196208 -V -0.198549 -T 0.101453
n -t 5.000000 -s 2 -x 1669.090059 -y 1951.572413 -U -0.099075 -V -4.258848 -T 0.101533
n -t 5.000000 -s 3 -x 2214.650000 -y 1533.860000 -U 0.000000 -V 0.000000 -T 0.000000
n -t 5.100000 -s 0 -x 31.777675 -y 1512.420000 -U 10.479527 -V -0.099586 -T 0.100417
n -t 5.100000 -s 1 -x 11.652448 -y 1512.640289 -U 5.346194 -V -0.201779 -T 0.100549
n -t 5.100000 -s 2 -x 1669.080152 -y 1951.146528 -U -0.001510 -V -4.440000 -T 0.100569
n -t 5.100000 -s 3 -x 2214.650000 -y 1533.860000 -U -0.250000 -V 0.000000 -T 0.080000
n -t 5.200000 -s 0 -x 32.825627 -y 1512.410042 -U 10.669534 -V -0.099722 -T 0.100695
n -t 5.200000 -s 1 -x 12.187067 -y 1512.620111 -U 5.549105 -V -0.099666 -T 0.101446
n -t 5.200000 -s 4 -x 5.050000 -y 1512.840000 -U 0.000000 -V 0.000000 -T 0.000000
n -t 5.200000 -s 2 -x 1669.080001 -y 1950.702528 -U -0.099439 -V -4.598925 -T 0.100573
n -t 5.200000 -s 3 -x 2214.630000 -y 1533.860000 -U -0.500000 -V 0.000000 -T 0.100000
n -t 5.300000 -s 0 -x 33.892581 -y 1512.400069 -U 10.820000 -V -0.000690 -T 0.100501
n -t 5.300000 -s 1 -x 12.741978 -y 1512.610144 -U 5.736517 -V -0.199918 -T 0.100762
n -t 5.300000 -s 4 -x 5.050000 -y 1512.840000 -U 0.250000 -V 0.000000 -T 0.080000
n -t 5.300000 -s 2 -x 1669.070057 -y 1950.242635 -U -0.100624 -V -4.828952 -T 0.099946
n -t 5.300000 -s 3 -x 2214.580000 -y 1533.860000 -U -0.740000 -V 0.000000 -T 0.108108
n -t 5.400000 -s 0 -x 34.974581 -y 1512.400000 -U 11.039548 -V -0.099871 -T 0.100133
n -t 5.400000 -s 1 -x 13.315630 -y 1512.590152 -U 5.906606 -V -0.200265 -T 0.100628
n -t 5.400000 -s 4 -x 5.070000 -y 1512.840000 -U 0.500000 -V 0.000000 -T 0.100000
n -t 5.400000 -s 2 -x 1669.060000 -y 1949.760000 -U 0.000000 -V -5.030000 -T 0.101392
n -t 5.400000 -s 3 -x 2214.506000 -y 1533.860000 -U -0.964780 -V -0.100498 -T 0.099505
n -t 5.500000 -s 0 -x 36.078536 -y 1512.390013 -U 11.190000 -V -0.000132 -T 0.100220
n -t 5.500000 -s 1 -x 13.906290 -y 1512.570126 -U 6.126706 -V -0.200917 -T 0.100170
n -t 5.500000 -s 4 -x 5.120000 -y 1512.840000 -U 0.740000 -V 0.000000 -T 0.108108
n -t 5.500000 -s 2 -x 1669.060000 -y 1949.257000 -U -0.099982 -V -5.269051 -T 0.100018
n -t 5.500000 -s 3 -x 2214.410000 -y 1533.850000 -U -1.180000 -V 0.000000 -T 0.101695
n -t 5.600000 -s 0 -x 37.197536 -y 1512.390000 -U 11.439569 -V -0.099262 -T 0.100744
n -t 5.600000 -s 1 -x 14.518961 -y 1512.550034 -U 6.276838 -V -0.199276 -T 0.100535
n -t 5.600000 -s 4 -x 5.194000 -y 1512.840000 -U 0.980000 -V 0.000000 -T 0.097959
n -t 5.600000 -s 2 -x 1669.050002 -y 1948.730095 -U -0.099439 -V -5.469096 -T 0.100582
n -t 5.600000 -s 3 -x 2214.292000 -y 1533.850000 -U -1.440000 -V 0.000000 -T 0.105556
n -t 5.700000 -s 0 -x 38.341493 -y 1512.380074 -U 11.639567 -V -0.100346 -T 0.100391
n -t 5.700000 -s 1 -x 15.146645 -y 1512.530107 -U 6.446948 -V -0.198400 -T 0.101343
n -t 5.700000 -s 4 -x 5.290000 -y 1512.840000 -U 1.175924 -V -0.097994 -T 0.102047
n -t 5.700000 -s 2 -x 1669.040058 -y 1948.183185 -U -0.100351 -V -5.619104 -T 0.100227
n -t 5.700000 -s 3 -x 2214.148000 -y 1533.850000 -U -1.690000 -V 0.000000 -T 0.105325
n -t 5.800000 -s 0 -x 39.505449 -y 1512.370039 -U 11.789577 -V -0.099918 -T 0.100474
n -t 5.800000 -s 1 -x 15.791339 -y 1512.510267 -U 6.659999 -V -0.002655 -T 0.100400
n -t 5.800000 -s 4 -x 5.407592 -y 1512.830201 -U 1.389999 -V -0.001958 -T 0.102452
n -t 5.800000 -s 2 -x 1669.030023 -y 1947.621275 -U -0.000228 -V -5.820000 -T 0.099875
n -t 5.800000 -s 3 -x 2213.979000 -y 1533.850000 -U -1.890000 -V 0.000000 -T 0.100000
n -t 5.900000 -s 0 -x 40.684407 -y 1512.360047 -U 12.010000 -V -0.000472 -T 0.100382
n -t 5.900000 -s 1 -x 16.457339 -y 1512.510001 -U 6.869284 -V -0.099183 -T 0.100834
n -t 5.900000 -s 4 -x 5.546592 -y 1512.830005 -U 1.587028 -V -0.097167 -T 0.102965
n -t 5.900000 -s 2 -x 1669.030000 -y 1947.040000 -U -0.099986 -V -5.999167 -T 0.100014
n -t 5.900000 -s 3 -x 2213.790000 -y 1533.850000 -U -2.087634 -V -0.099411 -T 0.100592
n -t 6.000000 -s 0 -x 41.885407 -y 1512.360000 -U 12.259598 -V -0.099303 -T 0.100704
n -t 6.000000 -s 1 -x 17.144268 -y 1512.500083 -U 7.020000 -V -0.000823 -T 0.100532
n -t 6.000000 -s 4 -x 5.705295 -y 1512.820288 -U 1.799998 -V -0.002807 -T 0.102614
n -t 6.000000 -s 2 -x 1669.020001 -y 1946.440083 -U -0.099342 -V -6.159199 -T 0.100676
n -t 6.000000 -s 3 -x 2213.581237 -y 1533.840059 -U -2.240000 -V -0.000570 -T 0.103231
n -t 6.000000 -s 5 -x 1645.540000 -y 789.100000 -U 0.000000 -V 0.000000 -T 0.000000
n -t 6.100000 -s 0 -x 43.111367 -y 1512.350070 -U 12.449595 -V -0.100403 -T 0.100295
n -t 6.100000 -s 1 -x 17.846268 -y 1512.500000 -U 7.279324 -V -0.099214 -T 0.100797
n -t 6.100000 -s 4 -x 5.885295 -y 1512.820007 -U 1.947674 -V -0.095215 -T 0.105102
n -t 6.100000 -s 2 -x 1669.010067 -y 1945.824163 -U -0.099998 -V -6.299206 -T 0.100674
n -t 6.100000 -s 3 -x 2213.357237 -y 1533.840002 -U -2.440000 -V -0.000018 -T 0.101326
n -t 6.100000 -s 5 -x 1645.540000 -y 789.100000 -U 0.000000 -V 0.250000 -T 0.080000
n -t 6.200000 -s 0 -x 44.356326 -y 1512.340030 -U 12.680000 -V -0.000295 -T 0.100447
n -t 6.200000 -s 1 -x 18.574200 -y 1512.490079 -U 7.500000 -V -0.000784 -T 0.100773
n -t 6.200000 -s 4 -x 6.080062 -y 1512.810486 -U 2.127583 -V -0.101435 -T 0.103374
n -t 6.200000 -s 2 -x 1669.000067 -y 1945.194243 -U -0.100009 -V -6.499231 -T 0.100665
n -t 6.200000 -s 3 -x 2213.113237 -y 1533.840000 -U -2.648227 -V -0.096921 -T 0.103177
n -t 6.200000 -s 5 -x 1645.540000 -y 789.120000 -U -0.100019 -V 0.500096 -T 0.099981
n -t 6.300000 -s 0 -x 45.624326 -y 1512.340000 -U 12.859617 -V -0.099252 -T 0.100755
n -t 6.300000 -s 1 -x 19.324200 -y 1512.490001 -U 7.640000 -V -0.000006 -T 0.100236
n -t 6.300000 -s 4 -x 6.292821 -y 1512.800342 -U 2.379998 -V -0.003296 -T 0.103857
n -t 6.300000 -s 2 -x 1668.990066 -y 1944.544320 -U -0.100009 -V -6.699254 -T 0.100656
n -t 6.300000 -s 3 -x 2212.848414 -y 1533.830308 -U -2.799998 -V -0.002990 -T 0.103005
n -t 6.300000 -s 5 -x 1645.530000 -y 789.170000 -U 0.000000 -V 0.750000 -T 0.106667
n -t 6.400000 -s 0 -x 46.910288 -y 1512.330075 -U 13.099618 -V -0.100005 -T 0.100744
n -t 6.400000 -s 1 -x 20.088200 -y 1512.490000 -U 7.789363 -V -0.099634 -T 0.100368
n -t 6.400000 -s 4 -x 6.530820 -y 1512.800013 -U 2.538107 -V -0.098053 -T 0.102115
n -t 6.400000 -s 2 -x 1668.980066 -y 1943.874394 -U -0.100153 -V -6.909274 -T 0.100502
n -t 6.400000 -s 3 -x 2212.568414 -y 1533.830009 -U -2.928353 -V -0.098219 -T 0.101905
n -t 6.400000 -s 5 -x 1645.530000 -y 789.245000 -U 0.000000 -V 0.990000 -T 0.106061
n -t 6.500000 -s 0 -x 48.220250 -y 1512.320074 -U 13.239620 -V -0.100306 -T 0.100437
n -t 6.500000 -s 1 -x 20.867136 -y 1512.480037 -U 7.940000 -V -0.000362 -T 0.101116
n -t 6.500000 -s 4 -x 6.784631 -y 1512.790207 -U 2.738119 -V -0.101497 -T 0.100569
n -t 6.500000 -s 2 -x 1668.970050 -y 1943.183467 -U -0.099441 -V -7.059300 -T 0.101068
n -t 6.500000 -s 3 -x 2212.275579 -y 1533.820187 -U -3.139999 -V -0.001862 -T 0.100503
n -t 6.500000 -s 5 -x 1645.530000 -y 789.344000 -U -0.097313 -V 1.226144 -T 0.102761
n -t 6.600000 -s 0 -x 49.544212 -y 1512.310044 -U 13.480000 -V -0.000436 -T 0.100578
n -t 6.600000 -s 1 -x 21.661136 -y 1512.480000 -U 8.149392 -V -0.099525 -T 0.100482
n -t 6.600000 -s 4 -x 7.058443 -y 1512.780058 -U 2.958355 -V -0.098669 -T 0.101934
n -t 6.600000 -s 2 -x 1668.960106 -y 1942.477537 -U -0.100283 -V -7.219304 -T 0.100777
n -t 6.600000 -s 3 -x 2211.961579 -y 1533.820001 -U -3.338569 -V -0.097749 -T 0.102313
n -t 6.600000 -s 5 -x 1645.520269 -y 789.466614 -U -0.002575 -V 1.469998 -T 0.104344
n -t 6.700000 -s 0 -x 50.892212 -y 1512.310000 -U 13.639635 -V -0.099723 -T 0.100280
n -t 6.700000 -s 1 -x 22.476076 -y 1512.470048 -U 8.390000 -V -0.000476 -T 0.100587
n -t 6.700000 -s 4 -x 7.354278 -y 1512.770191 -U 3.138366 -V -0.101300 -T 0.100601
n -t 6.700000 -s 2 -x 1668.950078 -y 1941.755607 -U -0.099622 -V -7.469336 -T 0.101161
n -t 6.700000 -s 3 -x 2211.627722 -y 1533.810226 -U -3.499999 -V -0.002212 -T 0.102206
n -t 6.700000 -s 5 -x 1645.520011 -y 789.613614 -U -0.097466 -V 1.717236 -T 0.102715
n -t 6.800000 -s 0 -x 52.256175 -y 1512.300028 -U 13.889641 -V -0.099930 -T 0.100350
n -t 6.800000 -s 1 -x 23.315076 -y 1512.470000 -U 8.619424 -V -0.099658 -T 0.100346
n -t 6.800000 -s 4 -x 7.668115 -y 1512.760061 -U 3.368542 -V -0.099128 -T 0.101493
n -t 6.800000 -s 2 -x 1668.940116 -y 1941.008673 -U -0.100022 -V -7.699350 -T 0.101135
n -t 6.800000 -s 3 -x 2211.277722 -y 1533.810005 -U -3.638653 -V -0.099000 -T 0.101060
n -t 6.800000 -s 5 -x 1645.510265 -y 789.785338 -U -0.102682 -V 1.947295 -T 0.099965
n -t 6.900000 -s 0 -x 53.645139 -y 1512.290035 -U 14.109645 -V -0.100073 -T 0.100276
n -t 6.900000 -s 1 -x 24.177018 -y 1512.460034 -U 8.770000 -V -0.000342 -T 0.100682
n -t 6.900000 -s 4 -x 8.004969 -y 1512.750148 -U 3.568621 -V -0.099210 -T 0.102289
n -t 6.900000 -s 2 -x 1668.930114 -y 1940.238738 -U -0.100527 -V -7.939364 -T 0.100605
n -t 6.900000 -s 3 -x 2210.913857 -y 1533.800105 -U -3.870000 -V -0.001031 -T 0.101772
n -t 6.900000 -s 5 -x 1645.500000 -y 789.980000 -U -0.099887 -V 2.097623 -T 0.100113
n -t 7.000000 -s 0 -x 55.056104 -y 1512.280028 -U 14.339654 -V -0.099587 -T 0.100693
n -t 7.000000 -s 1 -x 25.054018 -y 1512.460000 -U 8.909445 -V -0.099440 -T 0.100565
n -t 7.000000 -s 4 -x 8.361831 -y 1512.740227 -U 3.758626 -V -0.101647 -T 0.100614
n -t 7.000000 -s 2 -x 1668.920061 -y 1939.444802 -U -0.099884 -V -8.089383 -T 0.100725
n -t 7.000000 -s 3 -x 2210.526857 -y 1533.800002 -U -4.078826 -V -0.097865 -T 0.102200
n -t 7.000000 -s 5 -x 1645.490011 -y 790.189762 -U -0.097846 -V 2.347962 -T 0.102318
n -t 7.100000 -s 0 -x 56.490069 -y 1512.270069 -U 14.529654 -V -0.100209 -T 0.100479
n -t 7.100000 -s 1 -x 25.944962 -y 1512.450056 -U 9.160000 -V -0.000563 -T 0.099895
n -t 7.100000 -s 4 -x 8.737694 -y 1512.730062 -U 3.918711 -V -0.100512 -T 0.100111
n -t 7.100000 -s 2 -x 1668.910072 -y 1938.635863 -U -0.100733 -V -8.259386 -T 0.099991
n -t 7.100000 -s 3 -x 2210.118974 -y 1533.790215 -U -4.249999 -V -0.002133 -T 0.100935
n -t 7.100000 -s 5 -x 1645.480227 -y 790.424559 -U -0.100097 -V 2.598072 -T 0.102169
n -t 7.200000 -s 0 -x 57.943035 -y 1512.260048 -U 14.730000 -V -0.000479 -T 0.100269
n -t 7.200000 -s 1 -x 26.860000 -y 1512.450000 -U 9.419478 -V -0.099152 -T 0.100855
n -t 7.200000 -s 4 -x 9.129565 -y 1512.720011 -U 4.095136 -V -0.199662 -T 0.100225
n -t 7.200000 -s 2 -x 1668.900000 -y 1937.810000 -U -0.100111 -V -8.509411 -T 0.099889
n -t 7.200000 -s 3 -x 2209.693974 -y 1533.790002 -U -4.458918 -V -0.098239 -T 0.101813
n -t 7.200000 -s 5 -x 1645.470217 -y 790.684366 -U -0.101866 -V 2.748113 -T 0.100299
n -t 7.300000 -s 0 -x 59.416035 -y 1512.260000 -U 14.889666 -V -0.099667 -T 0.100336
n -t 7.300000 -s 1 -x 27.801948 -y 1512.440085 -U 9.599479 -V -0.100003 -T 0.100844
n -t 7.300000 -s 4 -x 9.539079 -y 1512.700045 -U 4.338874 -V -0.098847 -T 0.101621
n -t 7.300000 -s 2 -x 1668.890000 -y 1936.960000 -U -0.198568 -V -8.637718 -T 0.100721
n -t 7.300000 -s 3 -x 2209.248082 -y 1533.780178 -U -4.668896 -V -0.101521 -T 0.100255
n -t 7.300000 -s 5 -x 1645.460031 -y 790.959177 -U -0.099975 -V 2.998334 -T 0.100330
n -t 7.400000 -s 0 -x 60.905001 -y 1512.250033 -U 15.089669 -V -0.099935 -T 0.100400
n -t 7.400000 -s 1 -x 28.761896 -y 1512.430084 -U 9.860000 -V -0.000842 -T 0.100213
n -t 7.400000 -s 4 -x 9.972966 -y 1512.690160 -U 4.518883 -V -0.100459 -T 0.101139
n -t 7.400000 -s 2 -x 1668.870143 -y 1936.096228 -U -0.101513 -V -8.869419 -T 0.099920
n -t 7.400000 -s 3 -x 2208.781193 -y 1533.770026 -U -4.850000 -V -0.000256 -T 0.101277
n -t 7.400000 -s 5 -x 1645.450033 -y 791.259010 -U -0.101248 -V 3.138367 -T 0.099093
n -t 7.500000 -s 0 -x 62.413968 -y 1512.240040 -U 15.229670 -V -0.100198 -T 0.100201
n -t 7.500000 -s 1 -x 29.747896 -y 1512.430000 -U 10.089508 -V -0.099690 -T 0.100313
n -t 7.500000 -s 4 -x 10.424854 -y 1512.680114 -U 4.655830 -V -0.197096 -T 0.102054
n -t 7.500000 -s 2 -x 1668.860000 -y 1935.210000 -U -0.099994 -V -9.099451 -T 0.100006
n -t 7.500000 -s 3 -x 2208.296193 -y 1533.770000 -U -5.089045 -V -0.098591 -T 0.101432
n -t 7.500000 -s 5 -x 1645.440000 -y 791.570000 -U -0.196719 -V 3.344219 -T 0.101668
n -t 7.600000 -s 0 -x 63.936935 -y 1512.230020 -U 15.449678 -V -0.099679 -T 0.100524
n -t 7.600000 -s 1 -x 30.756846 -y 1512.420031 -U 10.290000 -V -0.000310 -T 0.100404
n -t 7.600000 -s 4 -x 10.890437 -y 1512.660405 -U 4.878898 -V -0.103693 -T 0.100343
n -t 7.600000 -s 2 -x 1668.850001 -y 1934.300055 -U -0.199088 -V -9.257860 -T 0.100461
n -t 7.600000 -s 3 -x 2207.787288 -y 1533.760141 -U -5.239031 -V -0.100761 -T 0.100646
n -t 7.600000 -s 5 -x 1645.420328 -y 791.904422 -U -0.100818 -V 3.568576 -T 0.102444
n -t 7.700000 -s 0 -x 65.481903 -y 1512.220052 -U 15.589680 -V -0.099937 -T 0.100586
n -t 7.700000 -s 1 -x 31.785846 -y 1512.420000 -U 10.509527 -V -0.099698 -T 0.100305
n -t 7.700000 -s 4 -x 11.378327 -y 1512.650036 -U 5.136213 -V -0.197263 -T 0.101568
n -t 7.700000 -s 2 -x 1668.830092 -y 1933.374269 -U -0.100355 -V -9.489469 -T 0.100561
n -t 7.700000 -s 3 -x 2207.263385 -y 1533.750065 -U -5.429102 -V -0.098746 -T 0.101929
n -t 7.700000 -s 5 -x 1645.410246 -y 792.261280 -U -0.100657 -V 3.818674 -T 0.101795
n -t 7.800000 -s 0 -x 67.040871 -y 1512.210059 -U 15.849683 -V -0.100322 -T 0.100263
n -t 7.800000 -s 1 -x 32.836799 -y 1512.410030 -U 10.759539 -V -0.099633 -T 0.100674
n -t 7.800000 -s 4 -x 11.891949 -y 1512.630309 -U 5.279031 -V -0.101148 -T 0.101922
n -t 7.800000 -s 2 -x 1668.820056 -y 1932.425322 -U -0.100318 -V -9.729483 -T 0.100244
n -t 7.800000 -s 3 -x 2206.720475 -y 1533.740191 -U -5.640000 -V -0.001884 -T 0.101148
n -t 7.800000 -s 5 -x 1645.400181 -y 792.643147 -U -0.200641 -V 4.045027 -T 0.100581
n -t 7.900000 -s 0 -x 68.625839 -y 1512.200026 -U 16.099689 -V -0.100003 -T 0.100260
n -t 7.900000 -s 1 -x 33.912753 -y 1512.400067 -U 10.920000 -V -0.000668 -T 0.100480
n -t 7.900000 -s 4 -x 12.419852 -y 1512.620194 -U 5.466319 -V -0.200654 -T 0.100643
n -t 7.900000 -s 2 -x 1668.810024 -y 1931.452374 -U -0.199927 -V -9.907983 -T 0.100159
n -t 7.900000 -s 6 -x 5.050000 -y 1512.840000 -U 0.000000 -V 0.000000 -T 0.000000
n -t 7.900000 -s 3 -x 2206.156475 -y 1533.740002 -U -5.839151 -V -0.099585 -T 0.100438
n -t 7.900000 -s 5 -x 1645.380117 -y 793.047650 -U -0.197532 -V 4.245407 -T 0.101840
n -t 8.000000 -s 0 -x 70.235808 -y 1512.190026 -U 16.269694 -V -0.099817 -T 0.100444
n -t 8.000000 -s 1 -x 35.004753 -y 1512.400000 -U 11.079555 -V -0.099349 -T 0.100658
n -t 8.000000 -s 4 -x 12.966483 -y 1512.600129 -U 5.666511 -V -0.198881 -T 0.101212
n -t 8.000000 -s 2 -x 1668.790032 -y 1930.461575 -U -0.100355 -V -10.119502 -T 0.099963
n -t 8.000000 -s 6 -x 5.050000 -y 1512.840000 -U 0.250000 -V 0.000000 -T 0.080000
n -t 8.000000 -s 3 -x 2205.572560 -y 1533.730044 -U -5.979169 -V -0.099663 -T 0.100776
n -t 8.000000 -s 5 -x 1645.360363 -y 793.472190 -U -0.203056 -V 4.465386 -T 0.100285
n -t 8.100000 -s 0 -x 71.862778 -y 1512.180044 -U 16.509697 -V -0.100064 -T 0.100379
n -t 8.100000 -s 1 -x 36.112709 -y 1512.390065 -U 11.310000 -V -0.000650 -T 0.100556
n -t 8.100000 -s 4 -x 13.533135 -y 1512.580241 -U 5.886616 -V -0.199628 -T 0.101394
n -t 8.100000 -s 2 -x 1668.780000 -y 1929.450000 -U -0.099515 -V -10.349522 -T 0.100488
n -t 8.100000 -s 6 -x 5.070000 -y 1512.840000 -U 0.500000 -V 0.000000 -T 0.100000
n -t 8.100000 -s 3 -x 2204.974643 -y 1533.720077 -U -6.109179 -V -0.100163 -T 0.100610
n -t 8.100000 -s 5 -x 1645.340058 -y 793.918729 -U -0.100495 -V 4.608905 -T 0.100083
n -t 8.200000 -s 0 -x 73.513747 -y 1512.170038 -U 16.689701 -V -0.099943 -T 0.100436
n -t 8.200000 -s 1 -x 37.243709 -y 1512.390000 -U 11.559568 -V -0.099975 -T 0.100029
n -t 8.200000 -s 4 -x 14.121796 -y 1512.560278 -U 6.026651 -V -0.200935 -T 0.100919
n -t 8.200000 -s 2 -x 1668.770049 -y 1928.415048 -U -0.199688 -V -10.608121 -T 0.100399
n -t 8.200000 -s 6 -x 5.120000 -y 1512.840000 -U 0.730000 -V 0.000000 -T 0.109589
n -t 8.200000 -s 3 -x 2204.363725 -y 1533.710061 -U -6.329202 -V -0.100483 -T 0.100127
n -t 8.200000 -s 5 -x 1645.330008 -y 794.379619 -U -0.197671 -V 4.745885 -T 0.101220
n -t 8.300000 -s 0 -x 75.182718 -y 1512.160044 -U 16.849701 -V -0.100298 -T 0.100137
n -t 8.300000 -s 1 -x 38.399665 -y 1512.380003 -U 11.719579 -V -0.099319 -T 0.100715
n -t 8.300000 -s 4 -x 14.724461 -y 1512.540185 -U 6.189180 -V -0.100769 -T 0.101070
n -t 8.300000 -s 2 -x 1668.750080 -y 1927.354236 -U -0.100399 -V -10.799533 -T 0.100397
n -t 8.300000 -s 6 -x 5.193000 -y 1512.840000 -U 0.990000 -V 0.000000 -T 0.097980
n -t 8.300000 -s 3 -x 2203.730805 -y 1533.700013 -U -6.519252 -V -0.098782 -T 0.101362
n -t 8.300000 -s 5 -x 1645.310241 -y 794.854208 -U -0.202329 -V 4.955872 -T 0.100041
n -t 8.400000 -s 0 -x 76.867688 -y 1512.150014 -U 17.079708 -V -0.099884 -T 0.100254
n -t 8.400000 -s 1 -x 39.571623 -y 1512.370071 -U 11.919579 -V -0.100170 -T 0.100539
n -t 8.400000 -s 4 -x 15.343379 -y 1512.530108 -U 6.336840 -V -0.200150 -T 0.100463
n -t 8.400000 -s 2 -x 1668.740040 -y 1926.274282 -U -0.200313 -V -10.938166 -T 0.100043
n -t 8.400000 -s 6 -x 5.290000 -y 1512.840000 -U 1.206436 -V -0.092803 -T 0.107755
n -t 8.400000 -s 3 -x 2203.078879 -y 1533.690135 -U -6.749248 -V -0.100755 -T 0.100586
n -t 8.400000 -s 5 -x 1645.290008 -y 795.349795 -U -0.199850 -V 5.096083 -T 0.100117
n -t 8.500000 -s 0 -x 78.575658 -y 1512.140025 -U 17.279711 -V -0.099886 -T 0.100369
n -t 8.500000 -s 1 -x 40.763581 -y 1512.360054 -U 12.120000 -V -0.000537 -T 0.100365
n -t 8.500000 -s 4 -x 15.977063 -y 1512.510093 -U 6.560000 -V -0.000918 -T 0.101057
n -t 8.500000 -s 2 -x 1668.720009 -y 1925.180466 -U -0.199428 -V -11.068203 -T 0.100329
n -t 8.500000 -s 6 -x 5.410644 -y 1512.830720 -U 1.399984 -V -0.006746 -T 0.106684
n -t 8.500000 -s 3 -x 2202.403955 -y 1533.680059 -U -6.919273 -V -0.100296 -T 0.100293
n -t 8.500000 -s 5 -x 1645.270023 -y 795.859403 -U -0.199489 -V 5.286237 -T 0.100373
n -t 8.600000 -s 0 -x 80.303630 -y 1512.130037 -U 17.489714 -V -0.099945 -T 0.100423
n -t 8.600000 -s 1 -x 41.975581 -y 1512.360000 -U 12.259598 -V -0.099317 -T 0.100690
n -t 8.600000 -s 4 -x 16.633063 -y 1512.510001 -U 6.699269 -V -0.098974 -T 0.101046
n -t 8.600000 -s 2 -x 1668.700066 -y 1924.073645 -U -0.099885 -V -11.249557 -T 0.100772
n -t 8.600000 -s 6 -x 5.550642 -y 1512.830045 -U 1.597193 -V -0.094734 -T 0.106035
n -t 8.600000 -s 3 -x 2201.712027 -y 1533.670029 -U -7.179307 -V -0.099725 -T 0.100571
n -t 8.600000 -s 5 -x 1645.250074 -y 796.388027 -U -0.298682 -V 5.481869 -T 0.100691
n -t 8.700000 -s 0 -x 82.052601 -y 1512.120042 -U 17.629715 -V -0.100171 -T 0.100251
n -t 8.700000 -s 1 -x 43.201541 -y 1512.350069 -U 12.399597 -V -0.100000 -T 0.100685
n -t 8.700000 -s 4 -x 17.302990 -y 1512.500104 -U 6.920000 -V -0.001028 -T 0.100724
n -t 8.700000 -s 2 -x 1668.690077 -y 1922.948690 -U -0.298394 -V -11.396094 -T 0.100797
n -t 8.700000 -s 6 -x 5.710361 -y 1512.820572 -U 1.849992 -V -0.005577 -T 0.102508
n -t 8.700000 -s 3 -x 2200.994097 -y 1533.660057 -U -7.399324 -V -0.100006 -T 0.100563
n -t 8.700000 -s 5 -x 1645.220206 -y 796.936214 -U -0.198903 -V 5.746559 -T 0.101589
n -t 8.800000 -s 0 -x 83.815573 -y 1512.110025 -U 17.759720 -V -0.099777 -T 0.100476
n -t 8.800000 -s 1 -x 44.441501 -y 1512.340069 -U 12.550000 -V -0.000684 -T 0.100279
n -t 8.800000 -s 4 -x 17.994990 -y 1512.500001 -U 7.159319 -V -0.098755 -T 0.101268
n -t 8.800000 -s 2 -x 1668.660238 -y 1921.809080 -U -0.201814 -V -11.658253 -T 0.100279
n -t 8.800000 -s 6 -x 5.895360 -y 1512.820014 -U 2.097718 -V -0.097869 -T 0.102320
n -t 8.800000 -s 3 -x 2200.254164 -y 1533.650056 -U -7.619340 -V -0.100269 -T 0.100293
n -t 8.800000 -s 5 -x 1645.200316 -y 797.510870 -U -0.200337 -V 6.006660 -T 0.101409
n -t 8.900000 -s 0 -x 85.591545 -y 1512.100048 -U 17.949720 -V -0.100280 -T 0.100194
n -t 8.900000 -s 1 -x 45.696501 -y 1512.340000 -U 12.719608 -V -0.099881 -T 0.100121
n -t 8.900000 -s 4 -x 18.710922 -y 1512.490125 -U 7.330000 -V -0.001242 -T 0.100829
n -t 8.900000 -s 2 -x 1668.640056 -y 1920.643255 -U -0.299397 -V -11.886230 -T 0.100390
n -t 8.900000 -s 6 -x 6.105132 -y 1512.810227 -U 2.257860 -V -0.098316 -T 0.104022
n -t 8.900000 -s 3 -x 2199.492230 -y 1533.640029 -U -7.779361 -V -0.099743 -T 0.100552
n -t 8.900000 -s 5 -x 1645.180282 -y 798.111536 -U -0.300766 -V 6.142641 -T 0.100684
n -t 9.000000 -s 0 -x 87.386517 -y 1512.090019 -U 18.129726 -V -0.099617 -T 0.100580
n -t 9.000000 -s 1 -x 46.968461 -y 1512.330012 -U 12.949617 -V -0.099615 -T 0.100508
n -t 9.000000 -s 4 -x 19.443922 -y 1512.490001 -U 7.499344 -V -0.099198 -T 0.100819
n -t 9.000000 -s 2 -x 1668.610117 -y 1919.454632 -U -0.300915 -V -12.036239 -T 0.100084
n -t 9.000000 -s 6 -x 6.330918 -y 1512.800395 -U 2.469997 -V -0.003921 -T 0.100843
n -t 9.000000 -s 3 -x 2198.714294 -y 1533.630055 -U -8.029388 -V -0.099148 -T 0.101414
n -t 9.000000 -s 5 -x 1645.150206 -y 798.725800 -U -0.200013 -V 6.376864 -T 0.101021
n -t 9.000000 -s 7 -x 1653.010000 -y 773.630000 -U 0.000000 -V 0.000000 -T 0.000000
n -t 9.100000 -s 0 -x 89.199489 -y 1512.080058 -U 18.379726 -V -0.100439 -T 0.100138
n -t 9.100000 -s 1 -x 48.263423 -y 1512.320051 -U 13.199621 -V -0.100005 -T 0.100501
n -t 9.100000 -s 4 -x 20.193856 -y 1512.480081 -U 7.750000 -V -0.000811 -T 0.100148
n -t 9.100000 -s 2 -x 1668.580025 -y 1918.251008 -U -0.199896 -V -12.188361 -T 0.100178
n -t 9.100000 -s 6 -x 6.577918 -y 1512.800003 -U 2.698177 -V -0.099201 -T 0.100839
n -t 9.100000 -s 3 -x 2197.911355 -y 1533.620140 -U -8.229388 -V -0.100376 -T 0.101023
n -t 9.100000 -s 5 -x 1645.130204 -y 799.363486 -U -0.299649 -V 6.513111 -T 0.100799
n -t 9.100000 -s 7 -x 1653.010000 -y 773.630000 -U 0.111803 -V 0.223607 -T 0.089443
n -t 9.200000 -s 0 -x 91.037462 -y 1512.070014 -U 18.629734 -V -0.099627 -T 0.100513
n -t 9.200000 -s 1 -x 49.583385 -y 1512.310050 -U 13.340000 -V -0.000500 -T 0.100196
n -t 9.200000 -s 4 -x 20.968856 -y 1512.480000 -U 7.940000 -V -0.000001 -T 0.100900