V -t * -v 1.0a5 -a 0
W -t * -x 3000 -y 2500
A -t * -n 1 -p 0 -o 0x7fffffff -c 30 -a 1
A -t * -h 1 -m 1073741823 -s 0
n -t 0.000000 -s 0 -x 1774.280000 -y 2170.280000 -U 0.000000 -V 0.000000 -T 0.000000
n -t 0.100000 -s 0 -x 1774.280000 -y 2170.280000 -U 0.111803 -V -0.223607 -T 0.089443
n -t 0.200000 -s 0 -x 1774.290000 -y 2170.260000 -U 0.000000 -V -0.490000 -T 0.102041
n -t 0.300000 -s 0 -x 1774.290000 -y 2170.211000 -U 0.091895 -V -0.744349 -T 0.108820
n -t 0.400000 -s 0 -x 1774.299189 -y 2170.136565 -U 0.109030 -V -0.973916 -T 0.099151
n -t 0.500000 -s 0 -x 1774.310000 -y 2170.040000 -U 0.100485 -V -1.205820 -T 0.099517
n -t 0.600000 -s 0 -x 1774.320000 -y 2169.920000 -U 0.097118 -V -1.456766 -T 0.102968
n -t 0.700000 -s 0 -x 1774.329712 -y 2169.774323 -U 0.203408 -V -1.647491 -T 0.099742
n -t 0.800000 -s 0 -x 1774.350000 -y 2169.610000 -U 0.099862 -V -1.897374 -T 0.100138
n -t 0.900000 -s 0 -x 1774.359986 -y 2169.420263 -U 0.198989 -V -2.090551 -T 0.100578
n -t 1.000000 -s 0 -x 1774.379885 -y 2169.211208 -U 0.293192 -V -2.250986 -T 0.102714
n -t 1.000000 -s 1 -x 5.050000 -y 1512.840000 -U 0.000000 -V 0.000000 -T 0.000000
n -t 1.100000 -s 0 -x 1774.409204 -y 2168.986109 -U 0.204759 -V -2.521701 -T 0.101562
n -t 1.100000 -s 1 -x 5.050000 -y 1512.840000 -U 0.250000 -V 0.000000 -T 0.080000
n -t 1.200000 -s 0 -x 1774.429680 -y 2168.733939 -U 0.201947 -V -2.722520 -T 0.100620
n -t 1.200000 -s 1 -x 5.070000 -y 1512.840000 -U 0.500000 -V 0.000000 -T 0.100000
n -t 1.300000 -s 0 -x 1774.449875 -y 2168.461687 -U 0.298952 -V -2.894603 -T 0.100769
n -t 1.300000 -s 1 -x 5.120000 -y 1512.840000 -U 0.750000 -V 0.000000 -T 0.106667
n -t 1.400000 -s 0 -x 1774.479770 -y 2168.172226 -U 0.296096 -V -3.156141 -T 0.102095
n -t 1.400000 -s 1 -x 5.195000 -y 1512.840000 -U 0.970000 -V 0.000000 -T 0.097938
n -t 1.500000 -s 0 -x 1774.509380 -y 2167.856612 -U 0.306201 -V -3.366102 -T 0.100001
n -t 1.500000 -s 1 -x 5.290000 -y 1512.840000 -U 1.175924 -V -0.097994 -T 0.102047
n -t 1.600000 -s 0 -x 1774.540000 -y 2167.520002 -U 0.391234 -V -3.618914 -T 0.102241
n -t 1.600000 -s 1 -x 5.407592 -y 1512.830201 -U 1.409999 -V -0.001987 -T 0.100998
n -t 1.700000 -s 0 -x 1774.579123 -y 2167.158111 -U 0.306122 -V -3.847842 -T 0.100865
n -t 1.700000 -s 1 -x 5.548592 -y 1512.830002 -U 1.606918 -V -0.099576 -T 0.100446
n -t 1.800000 -s 0 -x 1774.609735 -y 2166.773327 -U 0.397350 -V -3.980215 -T 0.101333
n -t 1.800000 -s 1 -x 5.709284 -y 1512.820044 -U 1.800000 -V -0.000442 -T 0.100398
n -t 1.900000 -s 0 -x 1774.649470 -y 2166.375305 -U 0.402112 -V -4.120425 -T 0.100792
n -t 1.900000 -s 1 -x 5.889284 -y 1512.820000 -U 2.017729 -V -0.095758 -T 0.104432
n -t 2.000000 -s 0 -x 1774.689682 -y 2165.963263 -U 0.401206 -V -4.311373 -T 0.100493
n -t 2.000000 -s 1 -x 6.091057 -y 1512.810424 -U 2.247671 -V -0.102343 -T 0.101858
n -t 2.000000 -s 2 -x 1645.540000 -y 789.100000 -U 0.000000 -V 0.000000 -T 0.000000
n -t 2.100000 -s 0 -x 1774.729802 -y 2165.532125 -U 0.397757 -V -4.572733 -T 0.101061
n -t 2.100000 -s 1 -x 6.315824 -y 1512.800190 -U 2.469999 -V -0.001848 -T 0.102905
n -t 2.100000 -s 2 -x 1645.540000 -y 789.100000 -U 0.000000 -V 0.250000 -T 0.080000
n -t 2.200000 -s 0 -x 1774.769578 -y 2165.074852 -U 0.499600 -V -4.804092 -T 0.100925
n -t 2.200000 -s 1 -x 6.562824 -y 1512.800005 -U 2.608172 -V -0.097672 -T 0.102438
n -t 2.200000 -s 2 -x 1645.540000 -y 789.120000 -U -0.100019 -V 0.500096 -T 0.099981
n -t 2.300000 -s 0 -x 1774.819538 -y 2164.594443 -U 0.399773 -V -4.983993 -T 0.101213
n -t 2.300000 -s 1 -x 6.823641 -y 1512.790238 -U 2.818199 -V -0.100759 -T 0.101611
n -t 2.300000 -s 2 -x 1645.530000 -y 789.170000 -U 0.000000 -V 0.760000 -T 0.105263
n -t 2.400000 -s 0 -x 1774.859515 -y 2164.096044 -U 0.500586 -V -5.216034 -T 0.100851
n -t 2.400000 -s 1 -x 7.105461 -y 1512.780162 -U 3.028314 -V -0.101053 -T 0.100564
n -t 2.400000 -s 2 -x 1645.530000 -y 789.246000 -U 0.000000 -V 0.970000 -T 0.107216
n -t 2.500000 -s 0 -x 1774.909574 -y 2163.574440 -U 0.504473 -V -5.446688 -T 0.099958
n -t 2.500000 -s 1 -x 7.408293 -y 1512.770057 -U 3.258503 -V -0.098794 -T 0.101798
n -t 2.500000 -s 2 -x 1645.530000 -y 789.343000 -U -0.095767 -V 1.216235 -T 0.104421
n -t 2.600000 -s 0 -x 1774.960000 -y 2163.030000 -U 0.502465 -V -5.627613 -T 0.099509
n -t 2.600000 -s 1 -x 7.734143 -y 1512.760178 -U 3.488574 -V -0.099774 -T 0.102007
n -t 2.600000 -s 2 -x 1645.520423 -y 789.464624 -U -0.004135 -V 1.419994 -T 0.102378
n -t 2.700000 -s 0 -x 1775.010000 -y 2162.470000 -U 0.596921 -V -5.869726 -T 0.100516
n -t 2.700000 -s 1 -x 8.083000 -y 1512.750200 -U 3.658587 -V -0.101685 -T 0.100312
n -t 2.700000 -s 2 -x 1645.520010 -y 789.606623 -U -0.099069 -V 1.616968 -T 0.101039
n -t 2.800000 -s 0 -x 1775.069692 -y 2161.883027 -U 0.595259 -V -6.050791 -T 0.101314
n -t 2.800000 -s 1 -x 8.448859 -y 1512.740032 -U 3.828741 -V -0.098197 -T 0.102159
n -t 2.800000 -s 2 -x 1645.510103 -y 789.768320 -U -0.099941 -V 1.797223 -T 0.101089
n -t 2.900000 -s 0 -x 1775.129218 -y 2161.277948 -U 0.501372 -V -6.199760 -T 0.101286
n -t 2.900000 -s 1 -x 8.831733 -y 1512.730212 -U 4.045046 -V -0.200258 -T 0.100930
n -t 2.900000 -s 2 -x 1645.500109 -y 789.948042 -U -0.100483 -V 2.007487 -T 0.100602
n -t 3.000000 -s 0 -x 1775.179355 -y 2160.657972 -U 0.605644 -V -6.371279 -T 0.100133
n -t 3.000000 -s 1 -x 9.236238 -y 1512.710186 -U 4.288818 -V -0.100717 -T 0.101138
n -t 3.000000 -s 2 -x 1645.490061 -y 790.148791 -U -0.000591 -V 2.160000 -T 0.102412
n -t 3.100000 -s 0 -x 1775.239920 -y 2160.020844 -U 0.601192 -V -6.612728 -T 0.099935
n -t 3.100000 -s 1 -x 9.665119 -y 1512.700115 -U 4.468895 -V -0.099369 -T 0.101788
n -t 3.100000 -s 2 -x 1645.490001 -y 790.364791 -U -0.097808 -V 2.398006 -T 0.102255
n -t 3.200000 -s 0 -x 1775.300000 -y 2159.360000 -U 0.696425 -V -6.864765 -T 0.100513
n -t 3.200000 -s 1 -x 10.112009 -y 1512.690178 -U 4.685827 -V -0.197805 -T 0.102008
n -t 3.200000 -s 2 -x 1645.480221 -y 790.604591 -U -0.099664 -V 2.588082 -T 0.102550
n -t 3.300000 -s 0 -x 1775.369643 -y 2158.673524 -U 0.600918 -V -7.004270 -T 0.100442
n -t 3.300000 -s 1 -x 10.580592 -y 1512.670397 -U 4.938930 -V -0.102823 -T 0.101117
n -t 3.300000 -s 2 -x 1645.470254 -y 790.863400 -U -0.100831 -V 2.818197 -T 0.101696
n -t 3.400000 -s 0 -x 1775.429734 -y 2157.973097 -U 0.703098 -V -7.135443 -T 0.099937
n -t 3.400000 -s 1 -x 11.074485 -y 1512.660115 -U 5.156224 -V -0.197362 -T 0.101919
n -t 3.400000 -s 2 -x 1645.460171 -y 791.145219 -U -0.200755 -V 3.033364 -T 0.100476
n -t 3.500000 -s 0 -x 1775.500000 -y 2157.260000 -U 0.697831 -V -7.377068 -T 0.100311
n -t 3.500000 -s 1 -x 11.590107 -y 1512.640379 -U 5.346193 -V -0.201796 -T 0.100986
n -t 3.500000 -s 2 -x 1645.440096 -y 791.448556 -U -0.099556 -V 3.268484 -T 0.101406
n -t 3.600000 -s 0 -x 1775.569783 -y 2156.522293 -U 0.701692 -V -7.617751 -T 0.100068
n -t 3.600000 -s 1 -x 12.124726 -y 1512.620199 -U 5.599089 -V -0.101023 -T 0.100958
n -t 3.600000 -s 2 -x 1645.430140 -y 791.775404 -U -0.100616 -V 3.518562 -T 0.100779
n -t 3.700000 -s 0 -x 1775.639952 -y 2155.760518 -U 0.698998 -V -7.788697 -T 0.100212
n -t 3.700000 -s 1 -x 12.684635 -y 1512.610097 -U 5.816573 -V -0.199695 -T 0.100637
n -t 3.700000 -s 2 -x 1645.420078 -y 792.127260 -U -0.196453 -V 3.744851 -T 0.102204
n -t 3.800000 -s 0 -x 1775.709852 -y 2154.981648 -U 0.800838 -V -8.010066 -T 0.100080
n -t 3.800000 -s 1 -x 13.266292 -y 1512.590127 -U 5.986674 -V -0.199593 -T 0.100842
n -t 3.800000 -s 2 -x 1645.400433 -y 792.501745 -U -0.103442 -V 3.948645 -T 0.100859
n -t 3.900000 -s 0 -x 1775.789936 -y 2154.180642 -U 0.700108 -V -8.200168 -T 0.100076
n -t 3.900000 -s 1 -x 13.864960 -y 1512.570168 -U 6.196775 -V -0.199950 -T 0.100865
n -t 3.900000 -s 2 -x 1645.390089 -y 792.896610 -U -0.200947 -V 4.135120 -T 0.099971
n -t 4.000000 -s 0 -x 1775.859947 -y 2153.360625 -U 0.794440 -V -8.342258 -T 0.100767
n -t 4.000000 -s 1 -x 14.484637 -y 1512.550173 -U 6.376885 -V -0.199332 -T 0.101203
n -t 4.000000 -s 2 -x 1645.370000 -y 793.310000 -U -0.197523 -V 4.345513 -T 0.101254
n -t 4.000000 -s 3 -x 5.050000 -y 1512.840000 -U 0.000000 -V 0.000000 -T 0.000000
n -t 4.100000 -s 0 -x 1775.939391 -y 2152.526399 -U 0.804984 -V -8.552199 -T 0.100138
n -t 4.100000 -s 1 -x 15.122326 -y 1512.530240 -U 6.506919 -V -0.200250 -T 0.101073
n -t 4.100000 -s 2 -x 1645.350248 -y 793.744551 -U -0.198614 -V 4.565682 -T 0.101945
n -t 4.100000 -s 3 -x 5.050000 -y 1512.840000 -U 0.260000 -V 0.000000 -T 0.076923
n -t 4.200000 -s 0 -x 1776.019889 -y 2151.671179 -U 0.800374 -V -8.803693 -T 0.100092
n -t 4.200000 -s 1 -x 15.773018 -y 1512.510215 -U 6.660000 -V -0.002146 -T 0.100147
n -t 4.200000 -s 2 -x 1645.330386 -y 794.201120 -U -0.200327 -V 4.705738 -T 0.101765
n -t 4.200000 -s 3 -x 5.070000 -y 1512.840000 -U 0.500000 -V 0.000000 -T 0.100000
n -t 4.300000 -s 0 -x 1776.099926 -y 2150.790810 -U 0.899441 -V -8.995143 -T 0.100144
n -t 4.300000 -s 1 -x 16.439018 -y 1512.510000 -U 6.869281 -V -0.099416 -T 0.100590
n -t 4.300000 -s 2 -x 1645.310354 -y 794.671693 -U -0.101996 -V 4.908940 -T 0.101510
n -t 4.300000 -s 3 -x 5.120000 -y 1512.840000 -U 0.740000 -V 0.000000 -T 0.108108
n -t 4.400000 -s 0 -x 1776.189870 -y 2149.891296 -U 0.795426 -V -9.145474 -T 0.100738
n -t 4.400000 -s 1 -x 17.125946 -y 1512.500059 -U 7.050000 -V -0.000579 -T 0.101284
n -t 4.400000 -s 2 -x 1645.300154 -y 795.162587 -U -0.298462 -V 5.121310 -T 0.101031
n -t 4.400000 -s 3 -x 5.194000 -y 1512.840000 -U 0.950000 -V 0.000000 -T 0.101053
n -t 4.500000 -s 0 -x 1776.269413 -y 2148.976748 -U 0.903831 -V -9.346400 -T 0.100226
n -t 4.500000 -s 1 -x 17.830946 -y 1512.500001 -U 7.269316 -V -0.099716 -T 0.100292
n -t 4.500000 -s 2 -x 1645.270308 -y 795.674718 -U -0.200227 -V 5.376273 -T 0.101424
n -t 4.500000 -s 3 -x 5.289000 -y 1512.840000 -U 1.166025 -V -0.096366 -T 0.103771
n -t 4.600000 -s 0 -x 1776.359796 -y 2148.042108 -U 0.895199 -V -9.548126 -T 0.100764
n -t 4.600000 -s 1 -x 18.557877 -y 1512.490029 -U 7.440000 -V -0.000288 -T 0.101092
n -t 4.600000 -s 2 -x 1645.250285 -y 796.212346 -U -0.199988 -V 5.596428 -T 0.101432
n -t 4.600000 -s 4 -x 1645.540000 -y 789.100000 -U 0.000000 -V 0.000000 -T 0.000000
n -t 4.600000 -s 3 -x 5.405602 -y 1512.830363 -U 1.369996 -V -0.003448 -T 0.105400
n -t 4.700000 -s 0 -x 1776.449316 -y 2147.087296 -U 0.901764 -V -9.718252 -T 0.100563
n -t 4.700000 -s 1 -x 19.301877 -y 1512.490000 -U 7.680000 -V -0.000003 -T 0.101318
n -t 4.700000 -s 2 -x 1645.230286 -y 796.771988 -U -0.201359 -V 5.836528 -T 0.100747
n -t 4.700000 -s 4 -x 1645.540000 -y 789.100000 -U 0.000000 -V 0.250000 -T 0.080000
n -t 4.700000 -s 3 -x 5.542602 -y 1512.830019 -U 1.566829 -V -0.099731 -T 0.100456
n -t 4.800000 -s 0 -x 1776.539492 -y 2146.115471 -U 0.902743 -V -9.929046 -T 0.100258
n -t 4.800000 -s 1 -x 20.069877 -y 1512.490000 -U 7.879369 -V -0.099723 -T 0.100277
n -t 4.800000 -s 2 -x 1645.210150 -y 797.355641 -U -0.296554 -V 6.042728 -T 0.101669
n -t 4.800000 -s 4 -x 1645.540000 -y 789.120000 -U -0.096097 -V 0.480485 -T 0.104062
n -t 4.800000 -s 3 -x 5.699285 -y 1512.820046 -U 1.830000 -V -0.000437 -T 0.104216
n -t 4.900000 -s 0 -x 1776.629767 -y 2145.122566 -U 0.994930 -V -10.050876 -T 0.100744
n -t 4.900000 -s 1 -x 20.857814 -y 1512.480028 -U 8.030000 -V -0.000273 -T 0.101144
n -t 4.900000 -s 2 -x 1645.180495 -y 797.959914 -U -0.204810 -V 6.196616 -T 0.100068
n -t 4.900000 -s 4 -x 1645.530390 -y 789.168048 -U -0.004014 -V 0.739989 -T 0.097233
n -t 4.900000 -s 3 -x 5.882285 -y 1512.820002 -U 2.067604 -V -0.099559 -T 0.100462
n -t 5.000000 -s 0 -x 1776.729260 -y 2144.117478 -U 0.903464 -V -10.230183 -T 0.100436
n -t 5.000000 -s 1 -x 21.660814 -y 1512.480000 -U 8.239401 -V -0.099370 -T 0.100637
n -t 5.000000 -s 2 -x 1645.160014 -y 798.579576 -U -0.295938 -V 6.413176 -T 0.101420
n -t 5.000000 -s 4 -x 1645.530000 -y 789.240000 -U 0.000000 -V 0.980000 -T 0.102041
n -t 5.000000 -s 3 -x 6.089045 -y 1512.810046 -U 2.257865 -V -0.098212 -T 0.102289
n -t 5.100000 -s 0 -x 1776.819606 -y 2143.094460 -U 0.999850 -V -10.402058 -T 0.100409
n -t 5.100000 -s 1 -x 22.484754 -y 1512.470063 -U 8.420000 -V -0.000630 -T 0.100385
n -t 5.100000 -s 2 -x 1645.130420 -y 799.220893 -U -0.203465 -V 6.666896 -T 0.100363
n -t 5.100000 -s 4 -x 1645.530000 -y 789.338000 -U -0.097215 -V 1.186022 -T 0.102865
n -t 5.100000 -s 3 -x 6.314832 -y 1512.800225 -U 2.449999 -V -0.002246 -T 0.100069
n -t 5.200000 -s 0 -x 1776.919591 -y 2142.054254 -U 0.997533 -V -10.573047 -T 0.100657
n -t 5.200000 -s 1 -x 23.326754 -y 1512.470000 -U 8.569425 -V -0.099272 -T 0.100736
n -t 5.200000 -s 2 -x 1645.110074 -y 799.887583 -U -0.297236 -V 6.843548 -T 0.101178
n -t 5.200000 -s 4 -x 1645.520279 -y 789.456602 -U -0.002816 -V 1.449997 -T 0.098895
n -t 5.200000 -s 3 -x 6.559832 -y 1512.800000 -U 2.588089 -V -0.099479 -T 0.100525
n -t 5.300000 -s 0 -x 1777.019344 -y 2140.996949 -U 1.001305 -V -10.713309 -T 0.100524
n -t 5.300000 -s 1 -x 24.183697 -y 1512.460073 -U 8.720000 -V -0.000727 -T 0.100493
n -t 5.300000 -s 2 -x 1645.080350 -y 800.571938 -U -0.299771 -V 6.993578 -T 0.101245
n -t 5.300000 -s 4 -x 1645.520000 -y 789.600000 -U -0.099240 -V 1.687084 -T 0.100766
n -t 5.300000 -s 3 -x 6.818641 -y 1512.790052 -U 2.788221 -V -0.099616 -T 0.100910
n -t 5.400000 -s 0 -x 1777.119475 -y 2139.925619 -U 1.002309 -V -10.924114 -T 0.100294
n -t 5.400000 -s 1 -x 25.055697 -y 1512.460000 -U 8.869445 -V -0.099181 -T 0.100830
n -t 5.400000 -s 2 -x 1645.050373 -y 801.271295 -U -0.300259 -V 7.203745 -T 0.101156
n -t 5.400000 -s 4 -x 1645.510076 -y 789.768708 -U -0.097488 -V 1.947562 -T 0.103356
n -t 5.400000 -s 3 -x 7.097463 -y 1512.780091 -U 2.978344 -V -0.099338 -T 0.101579
n -t 5.500000 -s 0 -x 1777.219706 -y 2138.833207 -U 0.999608 -V -11.095061 -T 0.100334
n -t 5.500000 -s 1 -x 25.942641 -y 1512.450082 -U 9.010000 -V -0.000817 -T 0.100706
n -t 5.500000 -s 2 -x 1645.020347 -y 801.991670 -U -0.300253 -V 7.403914 -T 0.101072
n -t 5.500000 -s 4 -x 1645.500327 -y 789.963465 -U -0.100517 -V 2.107604 -T 0.102740
n -t 5.500000 -s 3 -x 7.395297 -y 1512.770157 -U 3.238416 -V -0.101299 -T 0.100266
n -t 5.600000 -s 0 -x 1777.319667 -y 2137.723701 -U 1.099404 -V -11.296628 -T 0.100357
n -t 5.600000 -s 1 -x 26.843641 -y 1512.450001 -U 9.259472 -V -0.098894 -T 0.101124
n -t 5.600000 -s 2 -x 1644.990322 -y 802.732061 -U -0.302202 -V 7.553957 -T 0.100337
n -t 5.600000 -s 4 -x 1645.490275 -y 790.174225 -U -0.101013 -V 2.317800 -T 0.101724
n -t 5.600000 -s 3 -x 7.719139 -y 1512.760027 -U 3.388534 -V -0.099679 -T 0.100593
n -t 5.700000 -s 0 -x 1777.429607 -y 2136.594038 -U 1.102631 -V -11.426925 -T 0.100118
n -t 5.700000 -s 1 -x 27.769589 -y 1512.440111 -U 9.459465 -V -0.100637 -T 0.100472
n -t 5.700000 -s 2 -x 1644.960102 -y 803.487457 -U -0.300578 -V 7.714146 -T 0.100146
n -t 5.700000 -s 4 -x 1645.480174 -y 790.406005 -U -0.100861 -V 2.517981 -T 0.100873
n -t 5.700000 -s 3 -x 8.057992 -y 1512.750059 -U 3.528638 -V -0.098050 -T 0.102591
n -t 5.800000 -s 0 -x 1777.539870 -y 2135.451346 -U 1.097942 -V -11.578058 -T 0.100306
n -t 5.800000 -s 1 -x 28.715535 -y 1512.430048 -U 9.670000 -V -0.000471 -T 0.100772
n -t 5.800000 -s 2 -x 1644.930044 -y 804.258872 -U -0.298307 -V 7.954408 -T 0.100715
n -t 5.800000 -s 4 -x 1645.470088 -y 790.657803 -U -0.097530 -V 2.728257 -T 0.103435
n -t 5.800000 -s 3 -x 8.410856 -y 1512.740254 -U 3.758626 -V -0.101653 -T 0.100873
n -t 5.900000 -s 0 -x 1777.649664 -y 2134.293540 -U 1.099949 -V -11.798839 -T 0.100310
n -t 5.900000 -s 1 -x 29.682535 -y 1512.430000 -U 9.839495 -V -0.099648 -T 0.100357
n -t 5.900000 -s 2 -x 1644.900213 -y 805.054313 -U -0.298754 -V 8.164536 -T 0.101131
n -t 5.900000 -s 4 -x 1645.460335 -y 790.930629 -U -0.102795 -V 2.878165 -T 0.100540
n -t 5.900000 -s 3 -x 8.786719 -y 1512.730089 -U 3.968758 -V -0.099285 -T 0.101614
n -t 6.000000 -s 0 -x 1777.759659 -y 2133.113656 -U 1.103679 -V -12.039518 -T 0.099975
n -t 6.000000 -s 1 -x 30.666485 -y 1512.420036 -U 10.020000 -V -0.000355 -T 0.100151
n -t 6.000000 -s 2 -x 1644.870338 -y 805.870766 -U -0.300929 -V 8.324563 -T 0.100814
n -t 6.000000 -s 4 -x 1645.450056 -y 791.218445 -U -0.097832 -V 3.128471 -T 0.102783
n -t 6.000000 -s 3 -x 9.183594 -y 1512.720160 -U 4.205302 -V -0.198825 -T 0.101397
n -t 6.000000 -s 5 -x 1645.100000 -y 1477.730000 -U 0.000000 -V 0.000000 -T 0.000000
n -t 6.100000 -s 0 -x 1777.870000 -y 2131.910000 -U 1.099190 -V -12.290947 -T 0.100074
n -t 6.100000 -s 1 -x 31.668485 -y 1512.420000 -U 10.249518 -V -0.099364 -T 0.100640
n -t 6.100000 -s 2 -x 1644.840245 -y 806.703222 -U -0.397482 -V 8.560777 -T 0.101250
n -t 6.100000 -s 4 -x 1645.440272 -y 791.531292 -U -0.102140 -V 3.268404 -T 0.100571
n -t 6.100000 -s 3 -x 9.604125 -y 1512.700278 -U 4.438821 -V -0.102318 -T 0.100449
n -t 6.100000 -s 5 -x 1645.100000 -y 1477.730000 -U 0.116276 -V 0.232551 -T 0.086003
n -t 6.200000 -s 0 -x 1777.979919 -y 2130.680905 -U 1.200183 -V -12.502526 -T 0.100052
n -t 6.200000 -s 1 -x 32.693436 -y 1512.410064 -U 10.400000 -V -0.000632 -T 0.100631
n -t 6.200000 -s 2 -x 1644.800497 -y 807.559300 -U -0.304543 -V 8.794729 -T 0.100140
n -t 6.200000 -s 4 -x 1645.430058 -y 791.858133 -U -0.199196 -V 3.494327 -T 0.100697
n -t 6.200000 -s 3 -x 10.048007 -y 1512.690046 -U 4.635821 -V -0.196887 -T 0.101814
n -t 6.200000 -s 5 -x 1645.110000 -y 1477.750000 -U 0.000000 -V 0.490000 -T 0.102041
n -t 6.300000 -s 0 -x 1778.099937 -y 2129.430653 -U 1.194776 -V -12.744117 -T 0.100490
n -t 6.300000 -s 1 -x 33.733436 -y 1512.410000 -U 10.539528 -V -0.099757 -T 0.100248
n -t 6.300000 -s 2 -x 1644.770042 -y 808.438773 -U -0.397710 -V 8.951169 -T 0.100683
n -t 6.300000 -s 4 -x 1645.410139 -y 792.207565 -U -0.100688 -V 3.698630 -T 0.100695
n -t 6.300000 -s 3 -x 10.511589 -y 1512.670357 -U 4.818917 -V -0.102190 -T 0.101353
n -t 6.300000 -s 5 -x 1645.110000 -y 1477.799000 -U 0.091895 -V 0.744349 -T 0.108820
n -t 6.400000 -s 0 -x 1778.219415 -y 2128.156241 -U 1.202296 -V -12.924198 -T 0.100296
n -t 6.400000 -s 1 -x 34.787389 -y 1512.400025 -U 10.799537 -V -0.100001 -T 0.100246
n -t 6.400000 -s 2 -x 1644.730271 -y 809.333890 -U -0.400521 -V 9.111201 -T 0.100548
n -t 6.400000 -s 4 -x 1645.400070 -y 792.577428 -U -0.198104 -V 3.874939 -T 0.101310
n -t 6.400000 -s 3 -x 10.993480 -y 1512.660138 -U 4.986061 -V -0.198236 -T 0.101587
n -t 6.400000 -s 5 -x 1645.119189 -y 1477.873435 -U 0.100927 -V 0.994894 -T 0.107112
n -t 6.500000 -s 0 -x 1778.339645 -y 2126.863821 -U 1.202348 -V -13.125043 -T 0.100100
n -t 6.500000 -s 1 -x 35.867343 -y 1512.390025 -U 11.060000 -V -0.000245 -T 0.100602
n -t 6.500000 -s 2 -x 1644.690219 -y 810.245010 -U -0.299485 -V 9.365213 -T 0.100904
n -t 6.500000 -s 4 -x 1645.380260 -y 792.964922 -U -0.100816 -V 4.078754 -T 0.101766
n -t 6.500000 -s 3 -x 11.492087 -y 1512.640315 -U 5.168975 -V -0.102944 -T 0.100197
n -t 6.500000 -s 5 -x 1645.129282 -y 1477.972924 -U 0.101693 -V 1.205719 -T 0.105394
n -t 6.600000 -s 0 -x 1778.459879 -y 2125.551317 -U 1.298618 -V -13.286688 -T 0.100199
n -t 6.600000 -s 1 -x 36.973343 -y 1512.390000 -U 11.239557 -V -0.099762 -T 0.100240
n -t 6.600000 -s 2 -x 1644.660271 -y 811.181531 -U -0.398798 -V 9.491626 -T 0.100980
n -t 6.600000 -s 4 -x 1645.370178 -y 793.372798 -U -0.197784 -V 4.285438 -T 0.102020
n -t 6.600000 -s 3 -x 12.008984 -y 1512.630020 -U 5.406300 -V -0.200060 -T 0.100071
n -t 6.600000 -s 5 -x 1645.139451 -y 1478.093496 -U 0.104851 -V 1.456230 -T 0.100605
n -t 6.700000 -s 0 -x 1778.589741 -y 2124.222648 -U 1.199061 -V -13.486803 -T 0.100294
n -t 6.700000 -s 1 -x 38.097299 -y 1512.380024 -U 11.499565 -V -0.100001 -T 0.100239
n -t 6.700000 -s 2 -x 1644.620391 -y 812.130694 -U 0.689867 -V 9.705513 -T 0.100902
n -t 6.700000 -s 4 -x 1645.350400 -y 793.801342 -U -0.203486 -V 4.475376 -T 0.100250
n -t 6.700000 -s 3 -x 12.549614 -y 1512.610014 -U 5.586438 -V -0.199521 -T 0.100312
n -t 6.700000 -s 5 -x 1645.149937 -y 1478.239119 -U 0.191242 -V 1.628811 -T 0.104911
n -t 6.800000 -s 0 -x 1778.709647 -y 2122.873968 -U 1.301451 -V -13.617952 -T 0.100160
n -t 6.800000 -s 1 -x 39.247255 -y 1512.370024 -U 11.730000 -V -0.000237 -T 0.100831
n -t 6.800000 -s 2 -x 1644.689378 -y 813.101245 -U 0.603440 -V 9.941703 -T 0.100461
n -t 6.800000 -s 4 -x 1645.330051 -y 794.248879 -U -0.200277 -V 4.705740 -T 0.100116
n -t 6.800000 -s 3 -x 13.108258 -y 1512.590062 -U 5.729143 -V -0.099095 -T 0.101541
n -t 6.800000 -s 5 -x 1645.169061 -y 1478.402000 -U 0.108627 -V 1.866842 -T 0.100705
n -t 6.900000 -s 0 -x 1778.839792 -y 2121.512173 -U 1.304616 -V -13.848685 -T 0.099805
n -t 6.900000 -s 1 -x 40.420255 -y 1512.370000 -U 11.929586 -V -0.099436 -T 0.100569
n -t 6.900000 -s 2 -x 1644.749722 -y 814.095415 -U 0.699317 -V 10.095809 -T 0.100496
n -t 6.900000 -s 4 -x 1645.310023 -y 794.719453 -U -0.198620 -V 4.865948 -T 0.100812
n -t 6.900000 -s 3 -x 13.681172 -y 1512.580153 -U 5.946633 -V -0.200125 -T 0.100700
n -t 6.900000 -s 5 -x 1645.179923 -y 1478.588685 -U 0.198621 -V 2.090586 -T 0.101080
n -t 7.000000 -s 0 -x 1778.970000 -y 2120.130000 -U 1.298130 -V -13.979859 -T 0.100144
n -t 7.000000 -s 1 -x 41.613214 -y 1512.360057 -U 12.139585 -V -0.100332 -T 0.100233
n -t 7.000000 -s 2 -x 1644.819653 -y 815.104996 -U 0.695830 -V 10.336606 -T 0.101097
n -t 7.000000 -s 4 -x 1645.290161 -y 795.206048 -U -0.197949 -V 5.046119 -T 0.101851
n -t 7.000000 -s 3 -x 14.275835 -y 1512.560140 -U 6.206770 -V -0.200276 -T 0.100562
n -t 7.000000 -s 5 -x 1645.199786 -y 1478.797743 -U 0.195410 -V 2.341861 -T 0.103446
n -t 7.000000 -s 6 -x 2214.650000 -y 1533.860000 -U 0.000000 -V 0.000000 -T 0.000000
n -t 7.100000 -s 0 -x 1779.099813 -y 2118.732014 -U 1.303729 -V -14.240446 -T 0.099857
n -t 7.100000 -s 1 -x 42.827172 -y 1512.350023 -U 12.400000 -V -0.000233 -T 0.100228
n -t 7.100000 -s 2 -x 1644.889236 -y 816.138657 -U 0.704509 -V 10.566540 -T 0.100444
n -t 7.100000 -s 4 -x 1645.270366 -y 795.710660 -U -0.202614 -V 5.266104 -T 0.100518
n -t 7.100000 -s 3 -x 14.896512 -y 1512.540113 -U 6.346901 -V -0.198376 -T 0.101386
n -t 7.100000 -s 5 -x 1645.219327 -y 1479.031929 -U 0.303327 -V 2.552037 -T 0.101123
n -t 7.100000 -s 6 -x 2214.650000 -y 1533.860000 -U -0.260000 -V 0.000000 -T 0.115385
n -t 7.200000 -s 0 -x 1779.230000 -y 2117.310000 -U 1.399236 -V -14.392142 -T 0.100055
n -t 7.200000 -s 1 -x 44.067172 -y 1512.350000 -U 12.589605 -V -0.099694 -T 0.100307
n -t 7.200000 -s 2 -x 1644.959687 -y 817.195311 -U 0.795995 -V 10.750572 -T 0.100896
n -t 7.200000 -s 4 -x 1645.250105 -y 796.237270 -U -0.198835 -V 5.466385 -T 0.101114
n -t 7.200000 -s 3 -x 15.531203 -y 1512.520275 -U 6.539205 -V -0.101989 -T 0.100746
n -t 7.200000 -s 5 -x 1645.249659 -y 1479.287133 -U 0.196524 -V 2.732943 -T 0.103503
n -t 7.200000 -s 6 -x 2214.624000 -y 1533.860000 -U -0.500000 -V 0.000000 -T 0.108000
n -t 7.300000 -s 0 -x 1779.369924 -y 2115.870786 -U 1.299375 -V -14.592262 -T 0.100107
n -t 7.300000 -s 1 -x 45.326133 -y 1512.340031 -U 12.799609 -V -0.100001 -T 0.100305
n -t 7.300000 -s 2 -x 1645.039287 -y 818.270368 -U 0.701418 -V 10.907470 -T 0.100815
n -t 7.300000 -s 4 -x 1645.230222 -y 796.783909 -U -0.199604 -V 5.686498 -T 0.101309
n -t 7.300000 -s 3 -x 16.185123 -y 1512.510076 -U 6.749248 -V -0.100768 -T 0.099993
n -t 7.300000 -s 5 -x 1645.269312 -y 1479.560427 -U 0.303683 -V 2.964486 -T 0.101054
n -t 7.300000 -s 6 -x 2214.574000 -y 1533.860000 -U -0.750000 -V 0.000000 -T 0.098667
n -t 7.400000 -s 0 -x 1779.499861 -y 2114.411560 -U 1.400285 -V -14.803922 -T 0.100079
n -t 7.400000 -s 1 -x 46.606094 -y 1512.330031 -U 12.969616 -V -0.099771 -T 0.100535
n -t 7.400000 -s 2 -x 1645.109429 -y 819.361115 -U 0.702456 -V 11.037670 -T 0.100464
n -t 7.400000 -s 4 -x 1645.210261 -y 797.352559 -U -0.299926 -V 5.822280 -T 0.100895
n -t 7.400000 -s 3 -x 16.860000 -y 1512.500000 -U 6.980000 -V 0.000000 -T 0.100287
n -t 7.400000 -s 5 -x 1645.299680 -y 1479.856876 -U 0.295219 -V 3.146180 -T 0.102704
n -t 7.400000 -s 6 -x 2214.500000 -y 1533.860000 -U -1.004988 -V -0.100499 -T 0.099504
n -t 7.500000 -s 0 -x 1779.639890 -y 2112.931167 -U 1.394886 -V -14.945046 -T 0.100446
n -t 7.500000 -s 1 -x 47.903055 -y 1512.320053 -U 13.140000 -V -0.000533 -T 0.100224
n -t 7.500000 -s 2 -x 1645.179674 -y 820.464882 -U 0.795523 -V 11.241888 -T 0.100972
n -t 7.500000 -s 4 -x 1645.180269 -y 797.934787 -U -0.199823 -V 5.966655 -T 0.101433
n -t 7.500000 -s 3 -x 17.558000 -y 1512.500000 -U 7.240000 -V 0.000000 -T 0.101105
n -t 7.500000 -s 5 -x 1645.329202 -y 1480.171494 -U 0.300820 -V 3.306344 -T 0.102381
n -t 7.500000 -s 6 -x 2214.400000 -y 1533.850000 -U -1.220000 -V 0.000000 -T 0.098361
n -t 7.600000 -s 0 -x 1779.779378 -y 2111.436663 -U 1.400524 -V -15.105212 -T 0.100407
n -t 7.600000 -s 1 -x 49.217055 -y 1512.320000 -U 13.389629 -V -0.099705 -T 0.100297
n -t 7.600000 -s 2 -x 1645.259227 -y 821.589071 -U 0.803001 -V 11.441857 -T 0.100589
n -t 7.600000 -s 4 -x 1645.160286 -y 798.531452 -U -0.202574 -V 6.176679 -T 0.100142
n -t 7.600000 -s 3 -x 18.282000 -y 1512.500000 -U 7.419337 -V -0.099189 -T 0.100818
n -t 7.600000 -s 5 -x 1645.359284 -y 1480.502128 -U 0.303581 -V 3.536996 -T 0.101180
n -t 7.600000 -s 6 -x 2214.280000 -y 1533.850000 -U -1.440000 -V 0.000000 -T 0.104167
n -t 7.700000 -s 0 -x 1779.919431 -y 2109.926142 -U 1.405142 -V -15.255424 -T 0.100039
n -t 7.700000 -s 1 -x 50.556018 -y 1512.310030 -U 13.569633 -V -0.099780 -T 0.100517
n -t 7.700000 -s 2 -x 1645.339527 -y 822.733257 -U 0.798257 -V 11.672737 -T 0.100811
n -t 7.700000 -s 4 -x 1645.140029 -y 799.149120 -U -0.295803 -V 6.313074 -T 0.101516
n -t 7.700000 -s 3 -x 19.023934 -y 1512.490081 -U 7.560000 -V -0.000811 -T 0.100009
n -t 7.700000 -s 5 -x 1645.389642 -y 1480.855828 -U 0.295412 -V 3.738346 -T 0.102765
n -t 7.700000 -s 6 -x 2214.136000 -y 1533.850000 -U -1.670000 -V 0.000000 -T 0.099401
n -t 7.800000 -s 0 -x 1780.059945 -y 2108.400599 -U 1.397933 -V -15.476995 -T 0.100187
n -t 7.800000 -s 1 -x 51.912982 -y 1512.300052 -U 13.709635 -V -0.100074 -T 0.100442
n -t 7.800000 -s 2 -x 1645.419352 -y 823.900530 -U 0.802958 -V 11.842810 -T 0.100438
n -t 7.800000 -s 4 -x 1645.110449 -y 799.780427 -U -0.201731 -V 6.506874 -T 0.101366
n -t 7.800000 -s 3 -x 19.779934 -y 1512.490000 -U 7.699351 -V -0.099983 -T 0.100017
n -t 7.800000 -s 5 -x 1645.419183 -y 1481.229662 -U 0.401664 -V 3.939577 -T 0.101619
n -t 7.800000 -s 6 -x 2213.970000 -y 1533.850000 -U -1.830000 -V 0.000000 -T 0.103825
n -t 7.900000 -s 0 -x 1780.199738 -y 2106.852900 -U 1.500603 -V -15.608030 -T 0.100134
n -t 7.900000 -s 1 -x 53.283945 -y 1512.290044 -U 13.869641 -V -0.099788 -T 0.100655
n -t 7.900000 -s 2 -x 1645.499648 -y 825.084811 -U 0.800323 -V 12.103569 -T 0.100399
n -t 7.900000 -s 4 -x 1645.090275 -y 800.431115 -U -0.298941 -V 6.703338 -T 0.101276
n -t 7.900000 -s 3 -x 20.549869 -y 1512.480002 -U 7.880000 -V -0.000017 -T 0.100270
n -t 7.900000 -s 5 -x 1645.459350 -y 1481.623620 -U 0.398382 -V 4.080599 -T 0.102039
n -t 7.900000 -s 6 -x 2213.787000 -y 1533.850000 -U -1.997670 -V -0.096506 -T 0.103621
n -t 8.000000 -s 0 -x 1780.349798 -y 2105.292097 -U 1.403519 -V -15.837933 -T 0.099893
n -t 8.000000 -s 1 -x 54.670909 -y 1512.280065 -U 14.120000 -V -0.000651 -T 0.100502
n -t 8.000000 -s 2 -x 1645.579681 -y 826.295168 -U 0.794554 -V 12.314393 -T 0.101088
n -t 8.000000 -s 4 -x 1645.060381 -y 801.101448 -U -0.302853 -V 6.963417 -T 0.100317
n -t 8.000000 -s 3 -x 21.337869 -y 1512.480000 -U 8.029391 -V -0.098868 -T 0.101145
n -t 8.000000 -s 5 -x 1645.499188 -y 1482.031680 -U 0.401236 -V 4.210927 -T 0.101716
n -t 8.000000 -s 6 -x 2213.587233 -y 1533.840349 -U -2.159997 -V -0.003474 -T 0.100571
n -t 8.000000 -s 7 -x 1774.280000 -y 2170.280000 -U 0.000000 -V 0.000000 -T 0.000000
n -t 8.100000 -s 0 -x 1780.490000 -y 2103.710000 -U 1.497243 -V -16.070403 -T 0.100184
n -t 8.100000 -s 1 -x 56.082909 -y 1512.280000 -U 14.369657 -V -0.099304 -T 0.100705
n -t 8.100000 -s 2 -x 1645.659136 -y 827.526608 -U 0.903867 -V 12.567539 -T 0.100528
n -t 8.100000 -s 4 -x 1645.030096 -y 801.797790 -U -0.298115 -V 7.153791 -T 0.100955
n -t 8.100000 -s 3 -x 22.140808 -y 1512.470113 -U 8.260000 -V -0.001127 -T 0.100386
n -t 8.100000 -s 5 -x 1645.539311 -y 1482.452773 -U 0.398665 -V 4.381902 -T 0.102062
n -t 8.100000 -s 6 -x 2213.371233 -y 1533.840002 -U -2.340000 -V -0.000019 -T 0.103091
n -t 8.100000 -s 7 -x 1774.280000 -y 2170.280000 -U 0.116276 -V -0.232551 -T 0.086003
n -t 8.200000 -s 0 -x 1780.639724 -y 2102.102960 -U 1.501926 -V -16.220614 -T 0.100055
n -t 8.200000 -s 1 -x 57.519875 -y 1512.270070 -U 14.529654 -V -0.100206 -T 0.100493
n -t 8.200000 -s 2 -x 1645.749523 -y 828.783361 -U 0.797812 -V 12.755073 -T 0.100873
n -t 8.200000 -s 4 -x 1645.000285 -y 802.513169 -U -0.299425 -V 7.383932 -T 0.101143
n -t 8.200000 -s 3 -x 22.966808 -y 1512.470000 -U 8.399409 -V -0.099619 -T 0.100387
n -t 8.200000 -s 5 -x 1645.579178 -y 1482.890963 -U 0.404813 -V 4.552035 -T 0.100842
n -t 8.200000 -s 6 -x 2213.137233 -y 1533.840000 -U -2.548075 -V -0.099058 -T 0.100952
n -t 8.200000 -s 7 -x 1774.290000 -y 2170.260000 -U 0.000000 -V -0.510000 -T 0.098039
n -t 8.300000 -s 0 -x 1780.789917 -y 2100.480898 -U 1.497418 -V -16.371663 -T 0.100228
n -t 8.300000 -s 1 -x 58.972840 -y 1512.260049 -U 14.759658 -V -0.100413 -T 0.100081
n -t 8.300000 -s 2 -x 1645.829304 -y 830.058869 -U 0.899189 -V 12.998937 -T 0.100864
n -t 8.300000 -s 4 -x 1644.970342 -y 803.251562 -U -0.301434 -V 7.634051 -T 0.100659
n -t 8.300000 -s 3 -x 23.806749 -y 1512.460039 -U 8.590000 -V -0.000384 -T 0.100495
n -t 8.300000 -s 5 -x 1645.619659 -y 1483.346167 -U 0.400491 -V 4.803333 -T 0.100729
n -t 8.300000 -s 6 -x 2212.882426 -y 1533.830094 -U -2.780000 -V -0.000928 -T 0.101592
n -t 8.300000 -s 7 -x 1774.290000 -y 2170.210000 -U 0.095507 -V -0.764054 -T 0.104705
n -t 8.400000 -s 0 -x 1780.939659 -y 2098.843732 -U 1.502009 -V -16.521866 -T 0.100094
n -t 8.400000 -s 1 -x 60.448806 -y 1512.250008 -U 14.899664 -V -0.099999 -T 0.100082
n -t 8.400000 -s 2 -x 1645.919223 -y 831.358762 -U 0.903468 -V 13.249232 -T 0.100477
n -t 8.400000 -s 4 -x 1644.940199 -y 804.014968 -U -0.299061 -V 7.774250 -T 0.100979
n -t 8.400000 -s 3 -x 24.665749 -y 1512.460000 -U 8.729429 -V -0.099852 -T 0.100150